# vtk DataFile Version 4.2
3D Slicer output. SPACE=LPS
ASCII
DATASET POLYDATA
POINTS 24430 float
-53.5147 22.6765 -14.0236 -53.495 22.8401 -13.8836 -53.4259 23.0439 -13.8611 
-53.3339 23.2099 -13.9648 -53.2541 23.2748 -14.1552 -53.217 23.2137 -14.3593 
-53.2368 23.0501 -14.4994 -53.3059 22.8463 -14.5218 -53.3979 22.6803 -14.4181 
-53.4777 22.6154 -14.2278 -53.061 22.508 -13.8908 -53.0415 22.6718 -13.7509 
-52.9733 22.8758 -13.7287 -52.8824 23.0423 -13.8327 -52.8035 23.1075 -14.0233 
-52.7668 23.0465 -14.2275 -52.7862 22.8828 -14.3675 -52.8544 22.6787 -14.3897 
-52.9453 22.5123 -14.2857 -53.0242 22.4471 -14.0951 -52.6055 22.344 -13.7609 
-52.5853 22.5075 -13.6207 -52.5171 22.7116 -13.5985 -52.4269 22.8783 -13.7028 
-52.3492 22.9439 -13.8936 -52.3136 22.8834 -14.0983 -52.3337 22.7199 -14.2384 
-52.4019 22.5158 -14.2606 -52.4921 22.3491 -14.1563 -52.5699 22.2835 -13.9655 
-52.1554 22.1776 -13.6355 -52.1316 22.3398 -13.4943 -52.0598 22.5425 -13.4711 
-51.9673 22.7083 -13.5748 -51.8896 22.774 -13.7657 -51.8562 22.7143 -13.9709 
-51.88 22.5521 -14.1121 -51.9518 22.3494 -14.1353 -52.0442 22.1836 -14.0316 
-52.122 22.1179 -13.8407 -51.7118 21.9993 -13.5153 -51.6831 22.1595 -13.3728 
-51.6059 22.36 -13.3481 -51.5095 22.5243 -13.4507 -51.431 22.5896 -13.6414 
-51.4001 22.5309 -13.8473 -51.4288 22.3708 -13.9898 -51.506 22.1702 -14.0144 
-51.6024 22.0059 -13.9119 -51.6809 21.9407 -13.7212 -51.2718 21.808 -13.398 
-51.2408 21.9671 -13.2548 -51.16 22.1661 -13.2291 -51.0603 22.329 -13.3308 
-50.9799 22.3935 -13.5209 -50.9493 22.335 -13.7269 -50.9804 22.1758 -13.8701 
-51.0611 21.9768 -13.8958 -51.1608 21.814 -13.7941 -51.2413 21.7495 -13.604 
-50.8345 21.6122 -13.2753 -50.8055 21.7723 -13.1327 -50.7241 21.971 -13.1069 
-50.6215 22.1326 -13.2077 -50.5368 22.1952 -13.3967 -50.5025 22.135 -13.6016 
-50.5315 21.975 -13.7442 -50.6129 21.7762 -13.77 -50.7155 21.6146 -13.6692 
-50.8001 21.552 -13.4802 -50.4024 21.4183 -13.1377 -50.3787 21.5807 -12.9969 
-50.2984 21.7799 -12.9714 -50.1922 21.9399 -13.0711 -50.1007 21.9994 -13.2578 
-50.0587 21.9358 -13.4602 -50.0824 21.7734 -13.6011 -50.1627 21.5741 -13.6265 
-50.2689 21.4142 -13.5269 -50.3605 21.3547 -13.3402 -49.9756 21.2279 -12.9765 
-49.9594 21.3937 -12.8385 -49.8819 21.5942 -12.8142 -49.7728 21.7528 -12.9128 
-49.6737 21.809 -13.0967 -49.6225 21.7413 -13.2956 -49.6387 21.5755 -13.4336 
-49.7161 21.375 -13.458 -49.8252 21.2164 -13.3594 -49.9243 21.1602 -13.1755 
-49.5408 21.0434 -12.7874 -49.5347 21.2134 -12.6538 -49.4664 21.4177 -12.6335 
-49.3621 21.5781 -12.7343 -49.2615 21.6335 -12.9176 -49.2031 21.5627 -13.1135 
-49.2092 21.3926 -13.247 -49.2774 21.1884 -13.2673 -49.3818 21.0279 -13.1665 
-49.4823 20.9725 -12.9832 -49.0741 20.8898 -12.5846 -49.0825 21.0644 -12.4573 
-49.0341 21.2749 -12.4456 -48.9474 21.4409 -12.554 -48.8556 21.4989 -12.7411 
-48.7937 21.4267 -12.9354 -48.7853 21.2521 -13.0627 -48.8336 21.0415 -13.0744 
-48.9203 20.8756 -12.966 -49.0121 20.8176 -12.7789 -48.5776 20.8011 -12.3902 
-48.6034 20.9788 -12.2697 -48.5803 21.1939 -12.2679 -48.5173 21.3641 -12.3856 
-48.4383 21.4245 -12.5777 -48.3736 21.3519 -12.7709 -48.3478 21.1741 -12.8914 
-48.3709 20.959 -12.8932 -48.4339 20.7888 -12.7755 -48.5129 20.7285 -12.5834 
-48.078 20.7788 -12.2095 -48.1195 20.9574 -12.0946 -48.1178 21.1736 -12.1006 
-48.0735 21.3449 -12.2251 -48.0037 21.4058 -12.4206 -47.9348 21.3331 -12.6123 
-47.8933 21.1545 -12.7271 -47.895 20.9383 -12.7211 -47.9393 20.767 -12.5966 
-48.0091 20.7061 -12.4012 -47.588 20.802 -12.0357 -47.6426 20.98 -11.9255 
-47.6564 21.1956 -11.937 -47.6242 21.3664 -12.0657 -47.5583 21.4272 -12.2626 
-47.4838 21.3548 -12.4523 -47.4292 21.1768 -12.5625 -47.4153 20.9613 -12.551 
-47.4475 20.7904 -12.4222 -47.5135 20.7296 -12.2254 -47.108 20.8593 -11.8595 
-47.1745 21.0359 -11.7537 -47.2009 21.25 -11.7698 -47.1772 21.4198 -11.9017 
-47.1124 21.4805 -12.0989 -47.0313 21.4089 -12.2862 -46.9649 21.2323 -12.3921 
-46.9385 21.0182 -12.376 -46.9622 20.8484 -12.2441 -47.0269 20.7877 -12.0468 
-46.638 20.9459 -11.6795 -46.7146 21.1206 -11.5775 -46.7511 21.3329 -11.5975 
-46.7337 21.5016 -11.7317 -46.6688 21.5623 -11.929 -46.5814 21.4919 -12.1138 
-46.5047 21.3171 -12.2158 -46.4682 21.1049 -12.1958 -46.4857 20.9361 -12.0616 
-46.5505 20.8754 -11.8644 -46.1795 21.0533 -11.4945 -46.2651 21.2259 -11.3962 
-46.3092 21.4364 -11.4192 -46.2952 21.6044 -11.5548 -46.2282 21.6656 -11.7512 
-46.1339 21.5968 -11.9333 -46.0483 21.4242 -12.0316 -46.0041 21.2137 -12.0085 
-46.0182 21.0457 -11.873 -46.0852 20.9845 -11.6766 -45.7339 21.1772 -11.299 
-45.8308 21.3466 -11.2057 -45.8827 21.555 -11.2322 -45.8698 21.7226 -11.3683 
-45.7971 21.7855 -11.5621 -45.6923 21.7197 -11.7395 -45.5955 21.5502 -11.8328 
-45.5436 21.3419 -11.8063 -45.5564 21.1743 -11.6702 -45.6292 21.1114 -11.4764 
-45.3102 21.3222 -11.0811 -45.4237 21.4858 -10.9966 -45.4855 21.6906 -11.0283 
-45.472 21.8585 -11.164 -45.3883 21.9253 -11.352 -45.2665 21.8655 -11.5204 
-45.153 21.7019 -11.6049 -45.0911 21.497 -11.5732 -45.1046 21.3291 -11.4375 
-45.1883 21.2623 -11.2495 -44.9227 21.495 -10.8252 -45.0537 21.6509 -10.7522 
-45.1253 21.8514 -10.7902 -45.1101 22.0201 -10.9248 -45.0139 22.0924 -11.1046 
-44.8735 22.0408 -11.2608 -44.7424 21.885 -11.3338 -44.6708 21.6844 -11.2958 
-44.6861 21.5158 -11.1612 -44.7822 21.4434 -10.9815 -44.5688 21.6902 -10.5362 
-44.7122 21.8393 -10.4731 -44.7907 22.0361 -10.5167 -44.7742 22.2055 -10.6503 
-44.6691 22.2826 -10.8229 -44.5155 22.2381 -10.9686 -44.3721 22.089 -11.0317 
-44.2937 21.8922 -10.9881 -44.3102 21.7228 -10.8545 -44.4153 21.6457 -10.6819 
-44.2378 21.9006 -10.2268 -44.3895 22.0445 -10.1713 -44.473 22.2381 -10.2196 
-44.4564 22.4075 -10.3531 -44.3461 22.4879 -10.5209 -44.1842 22.4487 -10.6589 
-44.0325 22.3047 -10.7143 -43.949 22.1111 -10.6661 -43.9656 21.9417 -10.5325 
-44.0759 21.8613 -10.3647 -43.9243 22.1259 -9.9036 -44.0836 22.2643 -9.85603 
-44.1726 22.4539 -9.91006 -44.1574 22.6222 -10.045 -44.0438 22.705 -10.2094 
-43.8751 22.6706 -10.3404 -43.7158 22.5322 -10.388 -43.6268 22.3426 -10.3339 
-43.642 22.1743 -10.199 -43.7557 22.0915 -10.0346 -43.6326 22.3718 -9.57091 
-43.7997 22.5037 -9.53221 -43.8949 22.688 -9.59338 -43.8821 22.8543 -9.73104 
-43.7659 22.9392 -9.89262 -43.5909 22.9101 -10.0164 -43.4239 22.7783 -10.0551 
-43.3286 22.594 -9.99393 -43.3415 22.4276 -9.85627 -43.4576 22.3428 -9.69469 
-43.3656 22.6369 -9.23377 -43.5384 22.7632 -9.20215 -43.6382 22.9431 -9.26906 
-43.6271 23.1077 -9.40892 -43.5093 23.1943 -9.56832 -43.3297 23.1697 -9.68638 
-43.157 23.0434 -9.718 -43.0571 22.8635 -9.6511 -43.0682 22.6989 -9.51123 
-43.1861 22.6123 -9.35183 -43.1143 22.9111 -8.89494 -43.2896 23.0347 -8.8667 
-43.3916 23.2122 -8.9365 -43.3815 23.3758 -9.07768 -43.263 23.463 -9.23631 
-43.0815 23.4404 -9.3518 -42.9063 23.3168 -9.38004 -42.8042 23.1393 -9.31024 
-42.8144 22.9757 -9.16906 -42.9328 22.8885 -9.01043 -42.8661 23.1904 -8.55662 
-43.0416 23.3137 -8.52878 -43.1446 23.4901 -8.59987 -43.1357 23.6523 -8.74274 
-43.0183 23.7382 -8.90282 -42.8373 23.7152 -9.01896 -42.6618 23.5918 -9.04681 
-42.5588 23.4154 -8.97571 -42.5677 23.2532 -8.83284 -42.685 23.1673 -8.67276 
-42.6119 23.4747 -8.22391 -42.7867 23.5989 -8.19513 -42.8904 23.7745 -8.2672 
-42.8835 23.9345 -8.41258 -42.7685 24.0178 -8.57573 -42.5893 23.9926 -8.69435 
-42.4145 23.8685 -8.72312 -42.3108 23.6929 -8.65106 -42.3178 23.5329 -8.50568 
-42.4328 23.4495 -8.34252 -42.3515 23.7631 -7.90143 -42.526 23.8876 -7.87218 
-42.6305 24.0624 -7.94515 -42.6251 24.2207 -8.09248 -42.5119 24.302 -8.25789 
-42.3342 24.2754 -8.3782 -42.1597 24.1509 -8.40745 -42.0552 23.9761 -8.33447 
-42.0606 23.8178 -8.18714 -42.1737 23.7365 -8.02174 -42.0928 24.052 -7.58479 
-42.2679 24.1758 -7.55628 -42.3729 24.35 -7.62987 -42.3677 24.5081 -7.77745 
-42.2543 24.5896 -7.94264 -42.0761 24.5635 -8.06236 -41.901 24.4397 -8.09086 
-41.796 24.2655 -8.01727 -41.8012 24.1074 -7.8697 -41.9145 24.0258 -7.7045 
-41.8406 24.3393 -7.26644 -42.0167 24.462 -7.23913 -42.1218 24.6361 -7.31284 
-42.1158 24.7951 -7.45942 -42.0011 24.8782 -7.62289 -41.8214 24.8537 -7.7408 
-41.6454 24.731 -7.76811 -41.5403 24.5569 -7.6944 -41.5462 24.3979 -7.54781 
-41.6609 24.3148 -7.38435 -41.5936 24.625 -6.94307 -41.7702 24.7471 -6.91656 
-41.8752 24.9213 -6.99009 -41.8684 25.0813 -7.13557 -41.7525 25.1658 -7.29744 
-41.5716 25.1426 -7.41385 -41.395 25.0206 -7.44036 -41.29 24.8463 -7.36683 
-41.2968 24.6864 -7.22134 -41.4128 24.6019 -7.05948 -41.3485 24.9104 -6.61557 
-41.5249 25.0326 -6.58884 -41.6296 25.2073 -6.66194 -41.6224 25.3676 -6.80693 
-41.5062 25.4525 -6.96844 -41.3253 25.4294 -7.08477 -41.1488 25.3072 -7.11149 
-41.0442 25.1325 -7.0384 -41.0513 24.9722 -6.89341 -41.1676 24.8873 -6.7319 
-41.1009 25.1937 -6.28978 -41.2756 25.318 -6.26066 -41.3786 25.4944 -6.33169 
-41.3707 25.6556 -6.47574 -41.2549 25.74 -6.6378 -41.0754 25.7153 -6.75595 
-40.9008 25.591 -6.78507 -40.7977 25.4146 -6.71404 -40.8056 25.2534 -6.56998 
-40.9214 25.1691 -6.40793 -40.8466 25.4644 -5.96848 -41.0174 25.5927 -5.93453 
-41.1163 25.7734 -6.00037 -41.1056 25.9376 -6.14086 -40.9893 26.0224 -6.30233 
-40.8119 25.9955 -6.42311 -40.6411 25.8672 -6.45706 -40.5421 25.6864 -6.39122 
-40.5528 25.5223 -6.25073 -40.6691 25.4375 -6.08926 -40.5839 25.7119 -5.64531 
-40.7499 25.8447 -5.60546 -40.8427 26.0312 -5.66374 -40.8268 26.2002 -5.7979 
-40.7083 26.287 -5.95669 -40.5325 26.2586 -6.07946 -40.3665 26.1257 -6.11931 
-40.2737 25.9392 -6.06103 -40.2896 25.7703 -5.92687 -40.4081 25.6834 -5.76808 
-40.3133 25.9344 -5.31355 -40.4746 26.0711 -5.268 -40.5608 26.2631 -5.31822 
-40.539 26.4369 -5.44504 -40.4174 26.5263 -5.60001 -40.2425 26.4971 -5.72394 
-40.0812 26.3604 -5.7695 -39.995 26.1685 -5.71927 -40.0168 25.9946 -5.59246 
-40.1384 25.9052 -5.43749 -40.0362 26.134 -4.97212 -40.1935 26.2736 -4.92153 
-40.2734 26.4701 -4.96405 -40.2455 26.6483 -5.08344 -40.1204 26.7402 -5.23411 
-39.946 26.7107 -5.3585 -39.7887 26.571 -5.4091 -39.7088 26.3746 -5.36657 
[...]
POINT_DATA 24430
SCALARS TubeRadius double
LOOKUP_TABLE default
0.35 0.35 0.35 0.35 0.35 0.35 0.35 0.35 0.35 
0.35 0.35 0.35 0.35 0.35 0.35 0.35 0.35 0.35 
0.35 0.35 0.35 0.35 0.35 0.35 0.35 0.35 0.35 
0.35 0.35 0.35 0.35 0.35 0.35 0.35 0.35 0.35 
0.35 0.35 0.35 0.35 0.35 0.35 0.35 0.35 0.35 
0.35 0.35 0.35 0.35 0.35 0.35 0.35 0.35 0.35 
0.35 0.35 0.35 0.35 0.35 0.35 0.35 0.35 0.35 
0.35 0.35 0.35 0.35 0.35 0.35 0.35 0.35 0.35 
0.35 0.35 0.35 0.35 0.35 0.35 0.35 0.35 0.35 
0.35 0.35 0.35 0.35 0.35 0.35 0.35 0.35 0.35 
0.35 0.35 0.35 0.35 0.35 0.35 0.35 0.35 0.35 
0.35 0.35 0.35 0.35 0.35 0.35 0.35 0.35 0.35 
0.35 0.35 0.35 0.35 0.35 0.35 0.35 0.35 0.35 
0.35 0.35 0.35 0.35 0.35 0.35 0.35 0.35 0.35 
0.35 0.35 0.35 0.35 0.35 0.35 0.35 0.35 0.35 
0.35 0.35 0.35 0.35 0.35 0.35 0.35 0.35 0.35 
0.35 0.35 0.35 0.35 0.35 0.35 0.35 0.35 0.35 
0.35 0.35 0.35 0.35 0.35 0.35 0.35 0.35 0.35 
0.35 0.35 0.35 0.35 0.35 0.35 0.35 0.35 0.35 
0.35 0.35 0.35 0.35 0.35 0.35 0.35 0.35 0.35 
0.35 0.35 0.35 0.35 0.35 0.35 0.35 0.35 0.35 
0.35 0.35 0.35 0.35 0.35 0.35 0.35 0.35 0.35 
0.35 0.35 0.35 0.35 0.35 0.35 0.35 0.35 0.35 
0.35 0.35 0.35 0.35 0.35 0.35 0.35 0.35 0.35 
0.35 0.35 0.35 0.35 0.35 0.35 0.35 0.35 0.35 
0.35 0.35 0.35 0.35 0.35 0.35 0.35 0.35 0.35 
0.35 0.35 0.35 0.35 0.35 0.35 0.35 0.35 0.35 
0.35 0.35 0.35 0.35 0.35 0.35 0.35 0.35 0.35 
0.35 0.35 0.35 0.35 0.35 0.35 0.35 0.35 0.35 
0.35 0.35 0.35 0.35 0.35 0.35 0.35 0.35 0.35 
0.35 0.35 0.35 0.35 0.35 0.35 0.35 0.35 0.35 
0.35 0.35 0.35 0.35 0.35 0.35 0.35 0.35 0.35 
0.35 0.35 0.35 0.35 0.35 0.35 0.35 0.35 0.35 
0.35 0.35 0.35 0.35 0.35 0.35 0.35 0.35 0.35 
0.35 0.35 0.35 0.35 0.35 0.35 0.35 0.35 0.35 
0.35 0.35 0.35 0.35 0.35 0.35 0.35 0.35 0.35 
0.35 0.35 0.35 0.35 0.35 0.35 0.35 0.35 0.35 
0.35 0.35 0.35 0.35 0.35 0.35 0.35 0.35 0.35 
0.35 0.35 0.35 0.35 0.35 0.35 0.35 0.35 0.35 
0.35 0.35 0.35 0.35 0.35 0.35 0.35 0.35 0.35 
0.35 0.35 0.35 0.35 0.35 0.35 0.35 0.35 0.35 
0.35 0.35 0.35 0.35 0.35 0.35 0.35 0.35 0.35 
0.35 0.35 0.35 0.35 0.35 0.35 0.35 0.35 0.35 
0.35 0.35 0.35 0.35 0.35 0.35 0.35 0.35 0.35 
0.35 0.35 0.35 0.35 0.35 0.35 0.35 0.35 0.35 
0.35 0.35 0.35 0.35 0.35 0.35 0.35 0.35 0.35 
0.35 0.35 0.35 0.35 0.35 0.35 0.35 0.35 0.35 
0.35 0.35 0.35 0.35 0.35 0.35 0.35 0.35 0.35 
0.35 0.35 0.35 0.35 0.35 0.35 0.35 0.35 0.35 
0.35 0.35 0.35 0.35 0.35 0.35 0.35 0.35 0.35 
0.35 0.35 0.35 0.35 0.35 0.35 0.35 0.35 0.35 
0.35 0.35 0.35 0.35 0.35 0.35 0.35 0.35 0.35 
0.35 0.35 0.35 0.35 0.35 0.35 0.35 0.35 0.35 
0.35 0.35 0.35 0.35 0.35 0.35 0.35 0.35 0.35 
0.35 0.35 0.35 0.35 0.35 0.35 0.35 0.35 0.35 
0.35 0.35 0.35 0.35 0.35 0.35 0.35 0.35 0.35 
0.35 0.35 0.35 0.35 0.35 0.35 0.35 0.35 0.35 
0.35 0.35 0.35 0.35 0.35 0.35 0.35 0.35 0.35 
0.35 0.35 0.35 0.35 0.35 0.35 0.35 0.35 0.35 
0.35 0.35 0.35 0.35 0.35 0.35 0.35 0.35 0.35 
0.35 0.35 0.35 0.35 0.35 0.35 0.35 0.35 0.35 
0.35 0.35 0.35 0.35 0.35 0.35 0.35 0.35 0.35 
0.35 0.35 0.35 0.35 0.35 0.35 0.35 0.35 0.35 
0.35 0.35 0.35 0.35 0.35 0.35 0.35 0.35 0.35 
0.35 0.35 0.35 0.35 0.35 0.35 0.35 0.35 0.35 
0.35 0.35 0.35 0.35 0.35 0.35 0.35 0.35 0.35 
0.35 0.35 0.35 0.35 0.35 0.35 0.35 0.35 0.35 
0.35 0.35 0.35 0.35 0.35 0.35 0.35 0.35 0.35 
0.35 0.35 0.35 0.35 0.35 0.35 0.35 0.35 0.35 
0.35 0.35 0.35 0.35 0.35 0.35 0.35 0.35 0.35 
0.35 0.35 0.35 0.35 0.35 0.35 0.35 0.35 0.35 
0.35 0.35 0.35 0.35 0.35 0.35 0.35 0.35 0.35 
0.35 0.35 0.35 0.35 0.35 0.35 0.35 0.35 0.35 
0.35 0.35 0.35 0.35 0.35 0.35 0.35 0.35 0.35 
0.35 0.35 0.35 0.35 0.35 0.35 0.35 0.35 0.35 
0.35 0.35 0.35 0.35 0.35 0.35 0.35 0.35 0.35 
0.35 0.35 0.35 0.35 0.35 0.35 0.35 0.35 0.35 
0.35 0.35 0.35 0.35 0.35 0.35 0.35 0.35 0.35 
0.35 0.35 0.35 0.35 0.35 0.35 0.35 0.35 0.35 
0.35 0.35 0.35 0.35 0.35 0.35 0.35 0.35 0.35 
0.35 0.35 0.35 0.35 0.35 0.35 0.35 0.35 0.35 
0.35 0.35 0.35 0.35 0.35 0.35 0.35 0.35 0.35 
0.35 0.35 0.35 0.35 0.35 0.35 0.35 0.35 0.35 
0.35 0.35 0.35 0.35 0.35 0.35 0.35 0.35 0.35 
0.35 0.35 0.35 0.35 0.35 0.35 0.35 0.35 0.35 
0.35 0.35 0.35 0.35 0.35 0.35 0.35 0.35 0.35 
0.35 0.35 0.35 0.35 0.35 0.35 0.35 0.35 0.35 
0.35 0.35 0.35 0.35 0.35 0.35 0.35 0.35 0.35 
0.35 0.35 0.35 0.35 0.35 0.35 0.35 0.35 0.35 
0.35 0.35 0.35 0.35 0.35 0.35 0.35 0.35 0.35 
0.35 0.35 0.35 0.35 0.35 0.35 0.35 0.35 0.35 
0.35 0.35 0.35 0.35 0.35 0.35 0.35 0.35 0.35 
0.35 0.35 0.35 0.35 0.35 0.35 0.35 0.35 0.35 
0.35 0.35 0.35 0.35 0.35 0.35 0.35 0.35 0.35 
0.35 0.35 0.35 0.35 0.35 0.35 0.35 0.35 0.35 
0.35 0.35 0.35 0.35 0.35 0.35 0.35 0.35 0.35 
0.35 0.35 0.35 0.35 0.35 0.35 0.35 0.35 0.35 
0.35 0.35 0.35 0.35 0.35 0.35 0.35 0.35 0.35 
0.35 0.35 0.35 0.35 0.35 0.35 0.35 0.35 0.35 
0.35 0.35 0.35 0.35 0.35 0.35 0.35 0.35 0.35 
0.35 0.35 0.35 0.35 0.35 0.35 0.35 0.35 0.35 
0.35 0.35 0.35 0.35 0.35 0.35 0.35 0.35 0.35 
0.35 0.35 0.35 0.35 0.35 0.35 0.35 0.35 0.35 
0.35 0.35 0.35 0.35 0.35 0.35 0.35 0.35 0.35 
0.35 0.35 0.35 0.35 0.35 0.35 0.35 0.35 0.35 
0.35 0.35 0.35 0.35 0.35 0.35 0.35 0.35 0.35 
0.35 0.35 0.35 0.35 0.35 0.35 0.35 0.35 0.35 
0.35 0.35 0.35 0.35 0.35 0.35 0.35 0.35 0.35 
0.35 0.35 0.35 0.35 0.35 0.35 0.35 0.35 0.35 
0.35 0.35 0.35 0.35 0.35 0.35 0.35 0.35 0.35 
0.35 0.35 0.35 0.35 0.35 0.35 0.35 0.35 0.35 
0.35 0.35 0.35 0.35 0.35 0.35 0.35 0.35 0.35 
0.35 0.35 0.35 0.35 0.35 0.35 0.35 0.35 0.35 
0.35 0.35 0.35 0.35 0.35 0.35 0.35 0.35 0.35 
0.35 0.35 0.35 0.35 0.35 0.35 0.35 0.35 0.35 
0.35 0.35 0.35 0.35 0.35 0.35 0.35 0.35 0.35 
0.35 0.35 0.35 0.35 0.35 0.35 0.35 0.35 0.35 
0.35 0.35 0.35 0.35 0.35 0.35 0.35 0.35 0.35 
0.35 0.35 0.35 0.35 0.35 0.35 0.35 0.35 0.35 
0.35 0.35 0.35 0.35 0.35 0.35 0.35 0.35 0.35 
0.35 0.35 0.35 0.35 0.35 0.35 0.35 0.35 0.35 
0.35 0.35 0.35 0.35 0.35 0.35 0.35 0.35 0.35 
0.35 0.35 0.35 0.35 0.35 0.35 0.35 0.35 0.35 
0.35 0.35 0.35 0.35 0.35 0.35 0.35 0.35 0.35 
0.35 0.35 0.35 0.35 0.35 0.35 0.35 0.35 0.35 
0.35 0.35 0.35 0.35 0.35 0.35 0.35 0.35 0.35 
0.35 0.35 0.35 0.35 0.35 0.35 0.35 0.35 0.35 
0.35 0.35 0.35 0.35 0.35 0.35 0.35 0.35 0.35 
0.35 0.35 0.35 0.35 0.35 0.35 0.35 0.35 0.35 
0.35 0.35 0.35 0.35 0.35 0.35 0.35 0.35 0.35 
0.35 0.35 0.35 0.35 0.35 0.35 0.35 0.35 0.35 
0.35 0.35 0.35 0.35 0.35 0.35 0.35 0.35 0.35 
0.35 0.35 0.35 0.35 0.35 0.35 0.35 0.35 0.35 
0.35 0.35 0.35 0.35 0.35 0.35 0.35 0.35 0.35 
0.35 0.35 0.35 0.35 0.35 0.35 0.35 0.35 0.35 
0.35 0.35 0.35 0.35 0.35 0.35 0.35 0.35 0.35 
0.35 0.35 0.35 0.35 0.35 0.35 0.35 0.35 0.35 
0.35 0.35 0.35 0.35 0.35 0.35 0.35 0.35 0.35 
0.35 0.35 0.35 0.35 0.35 0.35 0.35 0.35 0.35 
0.35 0.35 0.35 0.35 0.35 0.35 0.35 0.35 0.35 
0.35 0.35 0.35 0.35 0.35 0.35 0.35 0.35 0.35 
0.35 0.35 0.35 0.35 0.35 0.35 0.35 0.35 0.35 
0.35 0.35 0.35 0.35 0.35 0.35 0.35 0.35 0.35 
0.35 0.35 0.35 0.35 0.35 0.35 0.35 0.35 0.35 
0.35 0.35 0.35 0.35 0.35 0.35 0.35 0.35 0.35 
0.35 0.35 0.35 0.35 0.35 0.35 0.35 0.35 0.35 
0.35 0.35 0.35 0.35 0.35 0.35 0.35 0.35 0.35 
0.35 0.35 0.35 0.35 0.35 0.35 0.35 0.35 0.35 
0.35 0.35 0.35 0.35 0.35 0.35 0.35 0.35 0.35 
0.35 0.35 0.35 0.35 0.35 0.35 0.35 0.35 0.35 
0.35 0.35 0.35 0.35 0.35 0.35 0.35 0.35 0.35 
0.35 0.35 0.35 0.35 0.35 0.35 0.35 0.35 0.35 
0.35 0.35 0.35 0.35 0.35 0.35 0.35 0.35 0.35 
0.35 0.35 0.35 0.35 0.35 0.35 0.35 0.35 0.35 
0.35 0.35 0.35 0.35 0.35 0.35 0.35 0.35 0.35 
0.35 0.35 0.35 0.35 0.35 0.35 0.35 0.35 0.35 
0.35 0.35 0.35 0.35 0.35 0.35 0.35 0.35 0.35 
0.35 0.35 0.35 0.35 0.35 0.35 0.35 0.35 0.35 
0.35 0.35 0.35 0.35 0.35 0.35 0.35 0.35 0.35 
0.35 0.35 0.35 0.35 0.35 0.35 0.35 0.35 0.35 
0.35 0.35 0.35 0.35 0.35 0.35 0.35 0.35 0.35 
0.35 0.35 0.35 0.35 0.35 0.35 0.35 0.35 0.35 
0.35 0.35 0.35 0.35 0.35 0.35 0.35 0.35 0.35 
0.35 0.35 0.35 0.35 0.35 0.35 0.35 0.35 0.35 
0.35 0.35 0.35 0.35 0.35 0.35 0.35 0.35 0.35 
0.35 0.35 0.35 0.35 0.35 0.35 0.35 0.35 0.35 
0.35 0.35 0.35 0.35 0.35 0.35 0.35 0.35 0.35 
0.35 0.35 0.35 0.35 0.35 0.35 0.35 0.35 0.35 
0.35 0.35 0.35 0.35 0.35 0.35 0.35 0.35 0.35 
0.35 0.35 0.35 0.35 0.35 0.35 0.35 0.35 0.35 
0.35 0.35 0.35 0.35 0.35 0.35 0.35 0.35 0.35 
0.35 0.35 0.35 0.35 0.35 0.35 0.35 0.35 0.35 
0.35 0.35 0.35 0.35 0.35 0.35 0.35 0.35 0.35 
0.35 0.35 0.35 0.35 0.35 0.35 0.35 0.35 0.35 
0.35 0.35 0.35 0.35 0.35 0.35 0.35 0.35 0.35 
0.35 0.35 0.35 0.35 0.35 0.35 0.35 0.35 0.35 
0.35 0.35 0.35 0.35 0.35 0.35 0.35 0.35 0.35 
0.35 0.35 0.35 0.35 0.35 0.35 0.35 0.35 0.35 
0.35 0.35 0.35 0.35 0.35 0.35 0.35 0.35 0.35 
0.35 0.35 0.35 0.35 0.35 0.35 0.35 0.35 0.35 
0.35 0.35 0.35 0.35 0.35 0.35 0.35 0.35 0.35 
0.35 0.35 0.35 0.35 0.35 0.35 0.35 0.35 0.35 
0.35 0.35 0.35 0.35 0.35 0.35 0.35 0.35 0.35 
0.35 0.35 0.35 0.35 0.35 0.35 0.35 0.35 0.35 
0.35 0.35 0.35 0.35 0.35 0.35 0.35 0.35 0.35 
0.35 0.35 0.35 0.35 0.35 0.35 0.35 0.35 0.35 
0.35 0.35 0.35 0.35 0.35 0.35 0.35 0.35 0.35 
0.35 0.35 0.35 0.35 0.35 0.35 0.35 0.35 0.35 
0.35 0.35 0.35 0.35 0.35 0.35 0.35 0.35 0.35 
0.35 0.35 0.35 0.35 0.35 0.35 0.35 0.35 0.35 
0.35 0.35 0.35 0.35 0.35 0.35 0.35 0.35 0.35 
0.35 0.35 0.35 0.35 0.35 0.35 0.35 0.35 0.35 
0.35 0.35 0.35 0.35 0.35 0.35 0.35 0.35 0.35 
0.35 0.35 0.35 0.35 0.35 0.35 0.35 0.35 0.35 
0.35 0.35 0.35 0.35 0.35 0.35 0.35 0.35 0.35 
0.35 0.35 0.35 0.35 0.35 0.35 0.35 0.35 0.35 
0.35 0.35 0.35 0.35 0.35 0.35 0.35 0.35 0.35 
0.35 0.35 0.35 0.35 0.35 0.35 0.35 0.35 0.35 
0.35 0.35 0.35 0.35 0.35 0.35 0.35 0.35 0.35 
0.35 0.35 0.35 0.35 0.35 0.35 0.35 0.35 0.35 
0.35 0.35 0.35 0.35 0.35 0.35 0.35 0.35 0.35 
0.35 0.35 0.35 0.35 0.35 0.35 0.35 0.35 0.35 
0.35 0.35 0.35 0.35 0.35 0.35 0.35 0.35 0.35 
0.35 0.35 0.35 0.35 0.35 0.35 0.35 0.35 0.35 
0.35 0.35 0.35 0.35 0.35 0.35 0.35 0.35 0.35 
0.35 0.35 0.35 0.35 0.35 0.35 0.35 0.35 0.35 
0.35 0.35 0.35 0.35 0.35 0.35 0.35 0.35 0.35 
0.35 0.35 0.35 0.35 0.35 0.35 0.35 0.35 0.35 
0.35 0.35 0.35 0.35 0.35 0.35 0.35 0.35 0.35 
0.35 0.35 0.35 0.35 0.35 0.35 0.35 0.35 0.35 
0.35 0.35 0.35 0.35 0.35 0.35 0.35 0.35 0.35 
0.35 0.35 0.35 0.35 0.35 0.35 0.35 0.35 0.35 
0.35 0.35 0.35 0.35 0.35 0.35 0.35 0.35 0.35 
0.35 0.35 0.35 0.35 0.35 0.35 0.35 0.35 0.35 
0.35 0.35 0.35 0.35 0.35 0.35 0.35 0.35 0.35 
0.35 0.35 0.35 0.35 0.35 0.35 0.35 0.35 0.35 
0.35 0.35 0.35 0.35 0.35 0.35 0.35 0.35 0.35 
0.35 0.35 0.35 0.35 0.35 0.35 0.35 0.35 0.35 
0.35 0.35 0.35 0.35 0.35 0.35 0.35 0.35 0.35 
0.35 0.35 0.35 0.35 0.35 0.35 0.35 0.35 0.35 
0.35 0.35 0.35 0.35 0.35 0.35 0.35 0.35 0.35 
0.35 0.35 0.35 0.35 0.35 0.35 0.35 0.35 0.35 
0.35 0.35 0.35 0.35 0.35 0.35 0.35 0.35 0.35 
0.35 0.35 0.35 0.35 0.35 0.35 0.35 0.35 0.35 
0.35 0.35 0.35 0.35 0.35 0.35 0.35 0.35 0.35 
0.35 0.35 0.35 0.35 0.35 0.35 0.35 0.35 0.35 
0.35 0.35 0.35 0.35 0.35 0.35 0.35 0.35 0.35 
0.35 0.35 0.35 0.35 0.35 0.35 0.35 0.35 0.35 
0.35 0.35 0.35 0.35 0.35 0.35 0.35 0.35 0.35 
0.35 0.35 0.35 0.35 0.35 0.35 0.35 0.35 0.35 
0.35 0.35 0.35 0.35 0.35 0.35 0.35 0.35 0.35 
0.35 0.35 0.35 0.35 0.35 0.35 0.35 0.35 0.35 
0.35 0.35 0.35 0.35 0.35 0.35 0.35 0.35 0.35 
0.35 0.35 0.35 0.35 0.35 0.35 0.35 0.35 0.35 
0.35 0.35 0.35 0.35 0.35 0.35 0.35 0.35 0.35 
0.35 0.35 0.35 0.35 0.35 0.35 0.35 0.35 0.35 
0.35 0.35 0.35 0.35 0.35 0.35 0.35 0.35 0.35 
0.35 0.35 0.35 0.35 0.35 0.35 0.35 0.35 0.35 
0.35 0.35 0.35 0.35 0.35 0.35 0.35 0.35 0.35 
0.35 0.35 0.35 0.35 0.35 0.35 0.35 0.35 0.35 
0.35 0.35 0.35 0.35 0.35 0.35 0.35 0.35 0.35 
0.35 0.35 0.35 0.35 0.35 0.35 0.35 0.35 0.35 
0.35 0.35 0.35 0.35 0.35 0.35 0.35 0.35 0.35 
0.35 0.35 0.35 0.35 0.35 0.35 0.35 0.35 0.35 
0.35 0.35 0.35 0.35 0.35 0.35 0.35 0.35 0.35 
0.35 0.35 0.35 0.35 0.35 0.35 0.35 0.35 0.35 
0.35 0.35 0.35 0.35 0.35 0.35 0.35 0.35 0.35 
0.35 0.35 0.35 0.35 0.35 0.35 0.35 0.35 0.35 
0.35 0.35 0.35 0.35 0.35 0.35 0.35 0.35 0.35 
0.35 0.35 0.35 0.35 0.35 0.35 0.35 0.35 0.35 
0.35 0.35 0.35 0.35 0.35 0.35 0.35 0.35 0.35 
0.35 0.35 0.35 0.35 0.35 0.35 0.35 0.35 0.35 
0.35 0.35 0.35 0.35 0.35 0.35 0.35 0.35 0.35 
0.35 0.35 0.35 0.35 0.35 0.35 0.35 0.35 0.35 
0.35 0.35 0.35 0.35 0.35 0.35 0.35 0.35 0.35 
0.35 0.35 0.35 0.35 0.35 0.35 0.35 0.35 0.35 
0.35 0.35 0.35 0.35 0.35 0.35 0.35 0.35 0.35 
0.35 0.35 0.35 0.35 0.35 0.35 0.35 0.35 0.35 
0.35 0.35 0.35 0.35 0.35 0.35 0.35 0.35 0.35 
0.35 0.35 0.35 0.35 0.35 0.35 0.35 0.35 0.35 
0.35 0.35 0.35 0.35 0.35 0.35 0.35 0.35 0.35 
0.35 0.35 0.35 0.35 0.35 0.35 0.35 0.35 0.35 
0.35 0.35 0.35 0.35 0.35 0.35 0.35 0.35 0.35 
0.35 0.35 0.35 0.35 0.35 0.35 0.35 0.35 0.35 
0.35 0.35 0.35 0.35 0.35 0.35 0.35 0.35 0.35 
0.35 0.35 0.35 0.35 0.35 0.35 0.35 0.35 0.35 
0.35 0.35 0.35 0.35 0.35 0.35 0.35 0.35 0.35 
0.35 0.35 0.35 0.35 0.35 0.35 0.35 0.35 0.35 
0.35 0.35 0.35 0.35 0.35 0.35 0.35 0.35 0.35 
0.35 0.35 0.35 0.35 0.35 0.35 0.35 0.35 0.35 
0.35 0.35 0.35 0.35 0.35 0.35 0.35 0.35 0.35 
0.35 0.35 0.35 0.35 0.35 0.35 0.35 0.35 0.35 
0.35 0.35 0.35 0.35 0.35 0.35 0.35 0.35 0.35 
0.35 0.35 0.35 0.35 0.35 0.35 0.35 0.35 0.35 
0.35 0.35 0.35 0.35 0.35 0.35 0.35 0.35 0.35 
0.35 0.35 0.35 0.35 0.35 0.35 0.35 0.35 0.35 
0.35 0.35 0.35 0.35 0.35 0.35 0.35 0.35 0.35 
0.35 0.35 0.35 0.35 0.35 0.35 0.35 0.35 0.35 
0.35 0.35 0.35 0.35 0.35 0.35 0.35 0.35 0.35 
0.35 0.35 0.35 0.35 0.35 0.35 0.35 0.35 0.35 
0.35 0.35 0.35 0.35 0.35 0.35 0.35 0.35 0.35 
0.35 0.35 0.35 0.35 0.35 0.35 0.35 0.35 0.35 
0.35 0.35 0.35 0.35 0.35 0.35 0.35 0.35 0.35 
0.35 0.35 0.35 0.35 0.35 0.35 0.35 0.35 0.35 
0.35 0.35 0.35 0.35 0.35 0.35 0.35 0.35 0.35 
0.35 0.35 0.35 0.35 0.35 0.35 0.35 0.35 0.35 
0.35 0.35 0.35 0.35 0.35 0.35 0.35 0.35 0.35 
0.35 0.35 0.35 0.35 0.35 0.35 0.35 0.35 0.35 
0.35 0.35 0.35 0.35 0.35 0.35 0.35 0.35 0.35 
0.35 0.35 0.35 0.35 0.35 0.35 0.35 0.35 0.35 
0.35 0.35 0.35 0.35 0.35 0.35 0.35 0.35 0.35 
0.35 0.35 0.35 0.35 0.35 0.35 0.35 0.35 0.35 
0.35 0.35 0.35 0.35 0.35 0.35 0.35 0.35 0.35 
0.35 0.35 0.35 0.35 0.35 0.35 0.35 0.35 0.35 
0.35 0.35 0.35 0.35 0.35 0.35 0.35 0.35 0.35 
0.35 0.35 0.35 0.35 0.35 0.35 0.35 0.35 0.35 
0.35 0.35 0.35 0.35 0.35 0.35 0.35 0.35 0.35 
0.35 0.35 0.35 0.35 0.35 0.35 0.35 0.35 0.35 
0.35 0.35 0.35 0.35 0.35 0.35 0.35 0.35 0.35 
0.35 0.35 0.35 0.35 0.35 0.35 0.35 0.35 0.35 
0.35 0.35 0.35 0.35 0.35 0.35 0.35 0.35 0.35 
0.35 0.35 0.35 0.35 0.35 0.35 0.35 0.35 0.35 
0.35 0.35 0.35 0.35 0.35 0.35 0.35 0.35 0.35 
0.35 0.35 0.35 0.35 0.35 0.35 0.35 0.35 0.35 
0.35 0.35 0.35 0.35 0.35 0.35 0.35 0.35 0.35 
0.35 0.35 0.35 0.35 0.35 0.35 0.35 0.35 0.35 
0.35 0.35 0.35 0.35 0.35 0.35 0.35 0.35 0.35 
0.35 0.35 0.35 0.35 0.35 0.35 0.35 0.35 0.35 
0.35 0.35 0.35 0.35 0.35 0.35 0.35 0.35 0.35 
0.35 0.35 0.35 0.35 0.35 0.35 0.35 0.35 0.35 
0.35 0.35 0.35 0.35 0.35 0.35 0.35 0.35 0.35 
0.35 0.35 0.35 0.35 0.35 0.35 0.35 0.35 0.35 
0.35 0.35 0.35 0.35 0.35 0.35 0.35 0.35 0.35 
0.35 0.35 0.35 0.35 0.35 0.35 0.35 0.35 0.35 
0.35 0.35 0.35 0.35 0.35 0.35 0.35 0.35 0.35 
0.35 0.35 0.35 0.35 0.35 0.35 0.35 0.35 0.35 
0.35 0.35 0.35 0.35 0.35 0.35 0.35 0.35 0.35 
0.35 0.35 0.35 0.35 0.35 0.35 0.35 0.35 0.35 
0.35 0.35 0.35 0.35 0.35 0.35 0.35 0.35 0.35 
0.35 0.35 0.35 0.35 0.35 0.35 0.35 0.35 0.35 
0.35 0.35 0.35 0.35 0.35 0.35 0.35 0.35 0.35 
0.35 0.35 0.35 0.35 0.35 0.35 0.35 0.35 0.35 
0.35 0.35 0.35 0.35 0.35 0.35 0.35 0.35 0.35 
0.35 0.35 0.35 0.35 0.35 0.35 0.35 0.35 0.35 
0.35 0.35 0.35 0.35 0.35 0.35 0.35 0.35 0.35 
0.35 0.35 0.35 0.35 0.35 0.35 0.35 0.35 0.35 
0.35 0.35 0.35 0.35 0.35 0.35 0.35 0.35 0.35 
0.35 0.35 0.35 0.35 0.35 0.35 0.35 0.35 0.35 
0.35 0.35 0.35 0.35 0.35 0.35 0.35 0.35 0.35 
0.35 0.35 0.35 0.35 0.35 0.35 0.35 0.35 0.35 
0.35 0.35 0.35 0.35 0.35 0.35 0.35 0.35 0.35 
0.35 0.35 0.35 0.35 0.35 0.35 0.35 0.35 0.35 
0.35 0.35 0.35 0.35 0.35 0.35 0.35 0.35 0.35 
0.35 0.35 0.35 0.35 0.35 0.35 0.35 0.35 0.35 
0.35 0.35 0.35 0.35 0.35 0.35 0.35 0.35 0.35 
0.35 0.35 0.35 0.35 0.35 0.35 0.35 0.35 0.35 
0.35 0.35 0.35 0.35 0.35 0.35 0.35 0.35 0.35 
0.35 0.35 0.35 0.35 0.35 0.35 0.35 0.35 0.35 
0.35 0.35 0.35 0.35 0.35 0.35 0.35 0.35 0.35 
0.35 0.35 0.35 0.35 0.35 0.35 0.35 0.35 0.35 
0.35 0.35 0.35 0.35 0.35 0.35 0.35 0.35 0.35 
0.35 0.35 0.35 0.35 0.35 0.35 0.35 0.35 0.35 
0.35 0.35 0.35 0.35 0.35 0.35 0.35 0.35 0.35 
0.35 0.35 0.35 0.35 0.35 0.35 0.35 0.35 0.35 
0.35 0.35 0.35 0.35 0.35 0.35 0.35 0.35 0.35 
0.35 0.35 0.35 0.35 0.35 0.35 0.35 0.35 0.35 
0.35 0.35 0.35 0.35 0.35 0.35 0.35 0.35 0.35 
0.35 0.35 0.35 0.35 0.35 0.35 0.35 0.35 0.35 
0.35 0.35 0.35 0.35 0.35 0.35 0.35 0.35 0.35 
0.35 0.35 0.35 0.35 0.35 0.35 0.35 0.35 0.35 
0.35 0.35 0.35 0.35 0.35 0.35 0.35 0.35 0.35 
0.35 0.35 0.35 0.35 0.35 0.35 0.35 0.35 0.35 
0.35 0.35 0.35 0.35 0.35 0.35 0.35 0.35 0.35 
0.35 0.35 0.35 0.35 0.35 0.35 0.35 0.35 0.35 
0.35 0.35 0.35 0.35 0.35 0.35 0.35 0.35 0.35 
0.35 0.35 0.35 0.35 0.35 0.35 0.35 0.35 0.35 
0.35 0.35 0.35 0.35 0.35 0.35 0.35 0.35 0.35 
0.35 0.35 0.35 0.35 0.35 0.35 0.35 0.35 0.35 
0.35 0.35 0.35 0.35 0.35 0.35 0.35 0.35 0.35 
0.35 0.35 0.35 0.35 0.35 0.35 0.35 0.35 0.35 
0.35 0.35 0.35 0.35 0.35 0.35 0.35 0.35 0.35 
0.35 0.35 0.35 0.35 0.35 0.35 0.35 0.35 0.35 
0.35 0.35 0.35 0.35 0.35 0.35 0.35 0.35 0.35 
0.35 0.35 0.35 0.35 0.35 0.35 0.35 0.35 0.35 
0.35 0.35 0.35 0.35 0.35 0.35 0.35 0.35 0.35 
0.35 0.35 0.35 0.35 0.35 0.35 0.35 0.35 0.35 
0.35 0.35 0.35 0.35 0.35 0.35 0.35 0.35 0.35 
0.35 0.35 0.35 0.35 0.35 0.35 0.35 0.35 0.35 
0.35 0.35 0.35 0.35 0.35 0.35 0.35 0.35 0.35 
0.35 0.35 0.35 0.35 0.35 0.35 0.35 0.35 0.35 
0.35 0.35 0.35 0.35 0.35 0.35 0.35 0.35 0.35 
0.35 0.35 0.35 0.35 0.35 0.35 0.35 0.35 0.35 
0.35 0.35 0.35 0.35 0.35 0.35 0.35 0.35 0.35 
0.35 0.35 0.35 0.35 0.35 0.35 0.35 0.35 0.35 
0.35 0.35 0.35 0.35 0.35 0.35 0.35 0.35 0.35 
0.35 0.35 0.35 0.35 0.35 0.35 0.35 0.35 0.35 
0.35 0.35 0.35 0.35 0.35 0.35 0.35 0.35 0.35 
0.35 0.35 0.35 0.35 0.35 0.35 0.35 0.35 0.35 
0.35 0.35 0.35 0.35 0.35 0.35 0.35 0.35 0.35 
0.35 0.35 0.35 0.35 0.35 0.35 0.35 0.35 0.35 
0.35 0.35 0.35 0.35 0.35 0.35 0.35 0.35 0.35 
0.35 0.35 0.35 0.35 0.35 0.35 0.35 0.35 0.35 
0.35 0.35 0.35 0.35 0.35 0.35 0.35 0.35 0.35 
0.35 0.35 0.35 0.35 0.35 0.35 0.35 0.35 0.35 
0.35 0.35 0.35 0.35 0.35 0.35 0.35 0.35 0.35 
0.35 0.35 0.35 0.35 0.35 0.35 0.35 0.35 0.35 
0.35 0.35 0.35 0.35 0.35 0.35 0.35 0.35 0.35 
0.35 0.35 0.35 0.35 0.35 0.35 0.35 0.35 0.35 
0.35 0.35 0.35 0.35 0.35 0.35 0.35 0.35 0.35 
0.35 0.35 0.35 0.35 0.35 0.35 0.35 0.35 0.35 
0.35 0.35 0.35 0.35 0.35 0.35 0.35 0.35 0.35 
0.35 0.35 0.35 0.35 0.35 0.35 0.35 0.35 0.35 
0.35 0.35 0.35 0.35 0.35 0.35 0.35 0.35 0.35 
0.35 0.35 0.35 0.35 0.35 0.35 0.35 0.35 0.35 
0.35 0.35 0.35 0.35 0.35 0.35 0.35 0.35 0.35 
0.35 0.35 0.35 0.35 0.35 0.35 0.35 0.35 0.35 
0.35 0.35 0.35 0.35 0.35 0.35 0.35 0.35 0.35 
0.35 0.35 0.35 0.35 0.35 0.35 0.35 0.35 0.35 
0.35 0.35 0.35 0.35 0.35 0.35 0.35 0.35 0.35 
0.35 0.35 0.35 0.35 0.35 0.35 0.35 0.35 0.35 
0.35 0.35 0.35 0.35 0.35 0.35 0.35 0.35 0.35 
0.35 0.35 0.35 0.35 0.35 0.35 0.35 0.35 0.35 
0.35 0.35 0.35 0.35 0.35 0.35 0.35 0.35 0.35 
0.35 0.35 0.35 0.35 0.35 0.35 0.35 0.35 0.35 
0.35 0.35 0.35 0.35 0.35 0.35 0.35 0.35 0.35 
0.35 0.35 0.35 0.35 0.35 0.35 0.35 0.35 0.35 
0.35 0.35 0.35 0.35 0.35 0.35 0.35 0.35 0.35 
0.35 0.35 0.35 0.35 0.35 0.35 0.35 0.35 0.35 
0.35 0.35 0.35 0.35 0.35 0.35 0.35 0.35 0.35 
0.35 0.35 0.35 0.35 0.35 0.35 0.35 0.35 0.35 
0.35 0.35 0.35 0.35 0.35 0.35 0.35 0.35 0.35 
0.35 0.35 0.35 0.35 0.35 0.35 0.35 0.35 0.35 
0.35 0.35 0.35 0.35 0.35 0.35 0.35 0.35 0.35 
0.35 0.35 0.35 0.35 0.35 0.35 0.35 0.35 0.35 
0.35 0.35 0.35 0.35 0.35 0.35 0.35 0.35 0.35 
0.35 0.35 0.35 0.35 0.35 0.35 0.35 0.35 0.35 
0.35 0.35 0.35 0.35 0.35 0.35 0.35 0.35 0.35 
0.35 0.35 0.35 0.35 0.35 0.35 0.35 0.35 0.35 
0.35 0.35 0.35 0.35 0.35 0.35 0.35 0.35 0.35 
0.35 0.35 0.35 0.35 0.35 0.35 0.35 0.35 0.35 
0.35 0.35 0.35 0.35 0.35 0.35 0.35 0.35 0.35 
0.35 0.35 0.35 0.35 0.35 0.35 0.35 0.35 0.35 
0.35 0.35 0.35 0.35 0.35 0.35 0.35 0.35 0.35 
0.35 0.35 0.35 0.35 0.35 0.35 0.35 0.35 0.35 
0.35 0.35 0.35 0.35 0.35 0.35 0.35 0.35 0.35 
0.35 0.35 0.35 0.35 0.35 0.35 0.35 0.35 0.35 
0.35 0.35 0.35 0.35 0.35 0.35 0.35 0.35 0.35 
0.35 0.35 0.35 0.35 0.35 0.35 0.35 0.35 0.35 
0.35 0.35 0.35 0.35 0.35 0.35 0.35 0.35 0.35 
0.35 0.35 0.35 0.35 0.35 0.35 0.35 0.35 0.35 
0.35 0.35 0.35 0.35 0.35 0.35 0.35 0.35 0.35 
0.35 0.35 0.35 0.35 0.35 0.35 0.35 0.35 0.35 
0.35 0.35 0.35 0.35 0.35 0.35 0.35 0.35 0.35 