# vtk DataFile Version 4.2
3D Slicer output. SPACE=LPS
ASCII
DATASET POLYDATA
POINTS 37880 float
3.06617 -13.5696 -11.4122 3.02702 -13.3654 -11.3523 2.91124 -13.2416 -11.218 
2.76305 -13.2453 -11.0605 2.63905 -13.3753 -10.9399 2.5866 -13.5818 -10.9024 
2.62575 -13.7859 -10.9623 2.74153 -13.9097 -11.0966 2.88973 -13.906 -11.2541 
3.01373 -13.776 -11.3747 2.6745 -13.5371 -11.776 2.6419 -13.3335 -11.7107 
2.54327 -13.2109 -11.5622 2.41628 -13.2163 -11.3872 2.30944 -13.3476 -11.2525 
2.26355 -13.5546 -11.2096 2.29614 -13.7582 -11.2748 2.39477 -13.8808 -11.4233 
2.52176 -13.8753 -11.5984 2.62861 -13.7441 -11.7331 2.18019 -13.5063 -12.0476 
2.15976 -13.3034 -11.9753 2.09057 -13.1828 -11.8096 1.99905 -13.1905 -11.6137 
1.92016 -13.3236 -11.4626 1.88404 -13.5313 -11.4138 1.90447 -13.7341 -11.4861 
1.97366 -13.8547 -11.6518 2.06518 -13.847 -11.8477 2.14407 -13.7139 -11.9988 
1.68094 -13.4721 -12.2424 1.66847 -13.2699 -12.1666 1.6176 -13.1508 -11.9934 
1.54774 -13.1602 -11.7889 1.48558 -13.2946 -11.6312 1.45486 -13.5026 -11.5806 
1.46732 -13.7049 -11.6564 1.5182 -13.824 -11.8296 1.58806 -13.8146 -12.0341 
1.65022 -13.6802 -12.1918 1.16841 -13.4399 -12.3905 1.16209 -13.2381 -12.3129 
1.12787 -13.1199 -12.135 1.0788 -13.1306 -11.9246 1.03363 -13.2661 -11.7621 
1.00962 -13.4746 -11.7096 1.01594 -13.6764 -11.7871 1.05016 -13.7945 -11.965 
1.09923 -13.7838 -12.1754 1.1444 -13.6484 -12.3379 0.635179 -13.4124 -12.4823 
0.636967 -13.211 -12.4035 0.623933 -13.094 -12.222 0.601056 -13.1061 -12.0072 
0.577073 -13.2426 -11.8412 0.561147 -13.4515 -11.7874 0.559359 -13.6529 -11.8662 
0.572394 -13.7699 -12.0477 0.595271 -13.7578 -12.2625 0.619253 -13.6213 -12.4285 
0.0957354 -13.3867 -12.5019 0.108639 -13.1858 -12.4227 0.118193 -13.0699 -12.2402 
0.12075 -13.0833 -12.0244 0.115332 -13.2208 -11.8575 0.104009 -13.4299 -11.8033 
0.0911061 -13.6308 -11.8826 0.0815513 -13.7466 -12.065 0.0789946 -13.7333 -12.2808 
0.0844125 -13.5958 -12.4477 -0.42891 -13.3505 -12.4672 -0.396965 -13.1512 -12.3894 
-0.365199 -13.0371 -12.2084 -0.345746 -13.0516 -11.9934 -0.346035 -13.1894 -11.8266 
-0.365957 -13.3976 -11.7717 -0.397902 -13.5969 -11.8496 -0.429668 -13.711 -12.0305 
-0.449121 -13.6965 -12.2455 -0.448832 -13.5587 -12.4123 -0.927209 -13.2634 -12.4019 
-0.873543 -13.0677 -12.3268 -0.823637 -12.9565 -12.1481 -0.796554 -12.9722 -11.9341 
-0.802639 -13.1087 -11.7664 -0.839568 -13.3141 -11.7092 -0.893235 -13.5097 -11.7843 
-0.943141 -13.6209 -11.963 -0.970223 -13.6053 -12.1771 -0.964138 -13.4687 -12.3447 
-1.40558 -13.137 -12.3282 -1.33501 -12.9458 -12.2558 -1.2744 -12.8373 -12.0787 
-1.2469 -12.853 -11.8647 -1.26302 -12.9868 -11.6955 -1.31659 -13.1877 -11.6358 
-1.38716 -13.3789 -11.7083 -1.44777 -13.4874 -11.8853 -1.47527 -13.4717 -12.0993 
-1.45915 -13.3379 -12.2685 -1.84526 -12.9775 -12.2628 -1.76792 -12.7888 -12.1907 
-1.70518 -12.6815 -12.0137 -1.681 -12.6967 -11.7993 -1.70462 -12.8285 -11.6294 
-1.76703 -13.0266 -11.569 -1.84437 -13.2154 -11.641 -1.90712 -13.3226 -11.8181 
-1.93129 -13.3074 -12.0325 -1.90767 -13.1756 -12.2024 -2.28775 -12.824 -12.2057 
-2.25292 -12.6255 -12.1269 -2.20828 -12.514 -11.9471 -2.17087 -12.5319 -11.7348 
-2.15498 -12.6725 -11.5711 -2.16669 -12.882 -11.5187 -2.20151 -13.0804 -11.5974 
-2.24615 -13.192 -11.7772 -2.28356 -13.1741 -11.9895 -2.29945 -13.0335 -12.1532 
-2.79905 -12.9136 -12.0844 -2.81 -12.7117 -12.0075 -2.78214 -12.59 -11.8308 
-2.72611 -12.595 -11.6219 -2.6633 -12.7247 -11.4606 -2.61771 -12.9297 -11.4085 
-2.60676 -13.1315 -11.4855 -2.63462 -13.2532 -11.6621 -2.69066 -13.2482 -11.871 
-2.75346 -13.1185 -12.0323 -3.2828 -12.9947 -11.9446 -3.29088 -12.7924 -11.8685 
-3.25757 -12.6698 -11.6934 -3.1956 -12.6738 -11.4862 -3.12863 -12.8029 -11.326 
-3.08224 -13.0077 -11.2741 -3.07416 -13.21 -11.3503 -3.10747 -13.3326 -11.5254 
-3.16945 -13.3285 -11.7326 -3.23642 -13.1995 -11.8927 -3.75732 -13.0588 -11.8008 
-3.75772 -12.8555 -11.727 -3.7196 -12.7323 -11.5533 -3.65754 -12.7362 -11.3461 
-3.59523 -12.8659 -11.1846 -3.55648 -13.0717 -11.1303 -3.55608 -13.275 -11.2041 
-3.59419 -13.3982 -11.3778 -3.65626 -13.3942 -11.585 -3.71857 -13.2646 -11.7465 
-4.23009 -13.0991 -11.6628 -4.22344 -12.8951 -11.5911 -4.18308 -12.7717 -11.4181 
-4.12443 -12.7759 -11.2099 -4.06988 -12.9062 -11.0461 -4.04028 -13.1128 -10.9892 
-4.04693 -13.3167 -11.0609 -4.08729 -13.4402 -11.2339 -4.14594 -13.4359 -11.4421 
-4.20049 -13.3056 -11.6059 -4.70389 -13.1214 -11.5353 -4.69285 -12.9172 -11.4647 
-4.65299 -12.7938 -11.2916 -4.59953 -12.7983 -11.0821 -4.5529 -12.9289 -10.9161 
-4.53091 -13.1359 -10.8571 -4.54195 -13.3401 -10.9277 -4.58181 -13.4635 -11.1008 
-4.63527 -13.4591 -11.3103 -4.6819 -13.3284 -11.4763 -5.17842 -13.1313 -11.4215 
-5.16638 -12.927 -11.3513 -5.13031 -12.8036 -11.1773 -5.08399 -12.8082 -10.9661 
-5.0451 -12.939 -10.7983 -5.0285 -13.146 -10.7379 -5.04054 -13.3503 -10.8081 
-5.0766 -13.4737 -10.9821 -5.12293 -13.4691 -11.1933 -5.16182 -13.3383 -11.3612 
-5.6509 -13.1368 -11.3276 -5.64159 -12.9326 -11.2568 -5.61399 -12.8094 -11.0811 
-5.57865 -12.8143 -10.8678 -5.54907 -12.9453 -10.6982 -5.53654 -13.1525 -10.6372 
-5.54585 -13.3566 -10.7081 -5.57345 -13.4798 -10.8837 -5.60879 -13.475 -11.0971 
-5.63838 -13.344 -11.2666 -6.11593 -13.1422 -11.2656 -6.11107 -12.938 -11.1942 
-6.09777 -12.815 -11.0168 -6.08112 -12.82 -10.8012 -6.06747 -12.9511 -10.6297 
-6.06204 -13.1583 -10.5678 -6.0669 -13.3625 -10.6393 -6.0802 -13.4855 -10.8167 
-6.09685 -13.4805 -11.0323 -6.1105 -13.3494 -11.2037 -6.56243 -13.1404 -11.2547 
-6.56022 -12.9362 -11.1831 -6.5685 -12.8129 -11.0056 -6.5841 -12.8175 -10.7899 
-6.60108 -12.9483 -10.6184 -6.61294 -13.1552 -10.5567 -6.61515 -13.3594 -10.6282 
-6.60687 -13.4827 -10.8058 -6.59126 -13.4781 -11.0215 -6.57429 -13.3473 -11.1929 
-6.99964 -13.1105 -11.3287 -6.99352 -12.9067 -11.2562 -7.01885 -12.7825 -11.0809 
-7.06595 -12.7853 -10.8698 -7.11684 -12.9139 -10.7035 -7.15207 -13.1193 -10.6455 
-7.15819 -13.323 -10.718 -7.13286 -13.4472 -10.8933 -7.08575 -13.4445 -11.1044 
-7.03487 -13.3159 -11.2707 -7.46666 -13.0384 -11.4591 -7.44969 -12.8365 -11.3834 
-7.4718 -12.7133 -11.207 -7.52456 -12.7159 -10.9972 -7.58781 -12.8432 -10.8342 
-7.63739 -13.0468 -10.7803 -7.65437 -13.2487 -10.856 -7.63225 -13.3719 -11.0324 
-7.57949 -13.3693 -11.2422 -7.51624 -13.2419 -11.4051 -8.45134 -12.8349 -11.6755 
-8.42399 -12.6358 -11.5954 -8.42896 -12.5179 -11.4141 -8.46433 -12.5262 -11.2009 
-8.51661 -12.6576 -11.0371 -8.56582 -12.8618 -10.9854 -8.59317 -13.0608 -11.0656 
-8.5882 -13.1787 -11.2468 -8.55283 -13.1704 -11.4601 -8.50055 -13.0391 -11.6238 
-8.95438 -12.7348 -11.7249 -8.92193 -12.5368 -11.6441 -8.91792 -12.4207 -11.4617 
-8.94389 -12.4308 -11.2472 -8.98992 -12.5634 -11.0826 -9.03842 -12.7677 -11.0307 
-9.07088 -12.9658 -11.1114 -9.07488 -13.0819 -11.2939 -9.04891 -13.0717 -11.5084 
-9.00288 -12.9392 -11.673 -9.41778 -12.6333 -11.7827 -9.38398 -12.4355 -11.7018 
-9.38687 -12.3178 -11.5203 -9.42534 -12.3252 -11.3076 -9.4847 -12.4547 -11.1448 
-9.54227 -12.657 -11.0942 -9.57607 -12.8547 -11.1751 -9.57319 -12.9724 -11.3566 
-9.53472 -12.9651 -11.5693 -9.47536 -12.8355 -11.7321 -9.86745 -12.5144 -11.8822 
-9.83184 -12.3171 -11.8009 -9.84233 -12.1975 -11.621 -9.89491 -12.2012 -11.4112 
-9.96949 -12.3268 -11.2517 -10.0376 -12.5264 -11.2033 -10.0732 -12.7236 -11.2846 
-10.0627 -12.8432 -11.4646 -10.0102 -12.8395 -11.6744 -9.93556 -12.7139 -11.8339 
-10.3195 -12.3787 -12.0048 -10.2806 -12.1825 -11.9226 -10.2934 -12.0622 -11.7433 
-10.3531 -12.0638 -11.5353 -10.4367 -12.1867 -11.3782 -10.5125 -12.384 -11.3319 
-10.5513 -12.5802 -11.4142 -10.5385 -12.7005 -11.5935 -10.4788 -12.6989 -11.8014 
-10.3952 -12.576 -11.9585 -10.7664 -12.2293 -12.1379 -10.7184 -12.0363 -12.0529 
-10.7292 -11.9168 -11.873 -10.7946 -11.9164 -11.6668 -10.8896 -12.0353 -11.5131 
-10.978 -12.2281 -11.4707 -11.026 -12.4212 -11.5557 -11.0153 -12.5407 -11.7357 
-10.9499 -12.5411 -11.9418 -10.8548 -12.4221 -12.0955 -11.1817 -12.0452 -12.2782 
-11.1151 -11.8609 -12.1867 -11.1219 -11.7431 -12.0053 -11.1995 -11.7369 -11.8035 
-11.3182 -11.8445 -11.6583 -11.4327 -12.025 -11.6251 -11.4993 -12.2093 -11.7166 
-11.4925 -12.3271 -11.8979 -11.415 -12.3334 -12.0997 -11.2962 -12.2257 -12.245 
-11.5335 -11.8021 -12.4444 -11.4482 -11.6304 -12.3442 -11.4544 -11.5126 -12.1629 
-11.5498 -11.4937 -11.9697 -11.698 -11.5809 -11.8385 -11.8423 -11.7409 -11.8192 
-11.9276 -11.9126 -11.9194 -11.9214 -12.0304 -12.1007 -11.8259 -12.0493 -12.2939 
-11.6778 -11.9621 -12.4252 -11.8269 -11.5071 -12.6502 -11.7297 -11.3471 -12.5418 
-11.737 -11.2284 -12.3611 -11.8462 -11.1962 -12.1772 -12.0156 -11.2628 -12.0602 
-12.1803 -11.4029 -12.0549 -12.2776 -11.5629 -12.1633 -12.2702 -11.6816 -12.344 
-12.161 -11.7138 -12.5279 -11.9917 -11.6471 -12.6449 -12.0808 -11.1717 -12.8811 
-11.9751 -11.0229 -12.765 -11.9813 -10.9059 -12.5832 -12.0971 -10.8654 -12.405 
-12.2783 -10.9169 -12.2986 -12.4555 -11.0408 -12.3045 -12.5612 -11.1896 -12.4206 
-12.555 -11.3066 -12.6024 -12.4392 -11.3471 -12.7806 -12.2581 -11.2956 -12.887 
-12.301 -10.8042 -13.1184 -12.1883 -10.667 -12.9949 -12.1919 -10.5544 -12.8102 
-12.3105 -10.5094 -12.635 -12.4987 -10.5493 -12.5361 -12.6847 -10.6587 -12.5513 
-12.7973 -10.796 -12.6749 -12.7937 -10.9086 -12.8595 -12.6751 -10.9535 -13.0348 
-12.4869 -10.9137 -13.1337 -12.4892 -10.4115 -13.3526 -12.3712 -10.2853 -13.2224 
-12.3724 -10.178 -13.0346 -12.4922 -10.1305 -12.8609 -12.6849 -10.161 -12.7676 
-12.877 -10.2579 -12.7904 -12.995 -10.3841 -12.9205 -12.9939 -10.4915 -13.1083 
-12.874 -10.5389 -13.282 -12.6813 -10.5084 -13.3753 -12.6521 -9.99871 -13.5808 
-12.5303 -9.88209 -13.4453 -12.5292 -9.78044 -13.2544 -12.6492 -9.7326 -13.0809 
-12.8445 -9.75683 -12.9912 -13.0405 -9.84388 -13.0194 -13.1623 -9.96051 -13.1549 
-13.1634 -10.0622 -13.3458 -13.0434 -10.11 -13.5193 -12.8481 -10.0858 -13.609 
-12.798 -9.57161 -13.7978 -12.6746 -9.45945 -13.6601 -12.6724 -9.36087 -13.4675 
-12.7922 -9.31352 -13.2938 -12.9883 -9.33549 -13.2052 -13.1858 -9.41838 -13.2356 
[...]
POINT_DATA 37880
SCALARS TubeRadius double
LOOKUP_TABLE default
0.35 0.35 0.35 0.35 0.35 0.35 0.35 0.35 0.35 
0.35 0.35 0.35 0.35 0.35 0.35 0.35 0.35 0.35 
0.35 0.35 0.35 0.35 0.35 0.35 0.35 0.35 0.35 
0.35 0.35 0.35 0.35 0.35 0.35 0.35 0.35 0.35 
0.35 0.35 0.35 0.35 0.35 0.35 0.35 0.35 0.35 
0.35 0.35 0.35 0.35 0.35 0.35 0.35 0.35 0.35 
0.35 0.35 0.35 0.35 0.35 0.35 0.35 0.35 0.35 
0.35 0.35 0.35 0.35 0.35 0.35 0.35 0.35 0.35 
0.35 0.35 0.35 0.35 0.35 0.35 0.35 0.35 0.35 
0.35 0.35 0.35 0.35 0.35 0.35 0.35 0.35 0.35 
0.35 0.35 0.35 0.35 0.35 0.35 0.35 0.35 0.35 
0.35 0.35 0.35 0.35 0.35 0.35 0.35 0.35 0.35 
0.35 0.35 0.35 0.35 0.35 0.35 0.35 0.35 0.35 
0.35 0.35 0.35 0.35 0.35 0.35 0.35 0.35 0.35 
0.35 0.35 0.35 0.35 0.35 0.35 0.35 0.35 0.35 
0.35 0.35 0.35 0.35 0.35 0.35 0.35 0.35 0.35 
0.35 0.35 0.35 0.35 0.35 0.35 0.35 0.35 0.35 
0.35 0.35 0.35 0.35 0.35 0.35 0.35 0.35 0.35 
0.35 0.35 0.35 0.35 0.35 0.35 0.35 0.35 0.35 
0.35 0.35 0.35 0.35 0.35 0.35 0.35 0.35 0.35 
0.35 0.35 0.35 0.35 0.35 0.35 0.35 0.35 0.35 
0.35 0.35 0.35 0.35 0.35 0.35 0.35 0.35 0.35 
0.35 0.35 0.35 0.35 0.35 0.35 0.35 0.35 0.35 
0.35 0.35 0.35 0.35 0.35 0.35 0.35 0.35 0.35 
0.35 0.35 0.35 0.35 0.35 0.35 0.35 0.35 0.35 
0.35 0.35 0.35 0.35 0.35 0.35 0.35 0.35 0.35 
0.35 0.35 0.35 0.35 0.35 0.35 0.35 0.35 0.35 
0.35 0.35 0.35 0.35 0.35 0.35 0.35 0.35 0.35 
0.35 0.35 0.35 0.35 0.35 0.35 0.35 0.35 0.35 
0.35 0.35 0.35 0.35 0.35 0.35 0.35 0.35 0.35 
0.35 0.35 0.35 0.35 0.35 0.35 0.35 0.35 0.35 
0.35 0.35 0.35 0.35 0.35 0.35 0.35 0.35 0.35 
0.35 0.35 0.35 0.35 0.35 0.35 0.35 0.35 0.35 
0.35 0.35 0.35 0.35 0.35 0.35 0.35 0.35 0.35 
0.35 0.35 0.35 0.35 0.35 0.35 0.35 0.35 0.35 
0.35 0.35 0.35 0.35 0.35 0.35 0.35 0.35 0.35 
0.35 0.35 0.35 0.35 0.35 0.35 0.35 0.35 0.35 
0.35 0.35 0.35 0.35 0.35 0.35 0.35 0.35 0.35 
0.35 0.35 0.35 0.35 0.35 0.35 0.35 0.35 0.35 
0.35 0.35 0.35 0.35 0.35 0.35 0.35 0.35 0.35 
0.35 0.35 0.35 0.35 0.35 0.35 0.35 0.35 0.35 
0.35 0.35 0.35 0.35 0.35 0.35 0.35 0.35 0.35 
0.35 0.35 0.35 0.35 0.35 0.35 0.35 0.35 0.35 
0.35 0.35 0.35 0.35 0.35 0.35 0.35 0.35 0.35 
0.35 0.35 0.35 0.35 0.35 0.35 0.35 0.35 0.35 
0.35 0.35 0.35 0.35 0.35 0.35 0.35 0.35 0.35 
0.35 0.35 0.35 0.35 0.35 0.35 0.35 0.35 0.35 
0.35 0.35 0.35 0.35 0.35 0.35 0.35 0.35 0.35 
0.35 0.35 0.35 0.35 0.35 0.35 0.35 0.35 0.35 
0.35 0.35 0.35 0.35 0.35 0.35 0.35 0.35 0.35 
0.35 0.35 0.35 0.35 0.35 0.35 0.35 0.35 0.35 
0.35 0.35 0.35 0.35 0.35 0.35 0.35 0.35 0.35 
0.35 0.35 0.35 0.35 0.35 0.35 0.35 0.35 0.35 
0.35 0.35 0.35 0.35 0.35 0.35 0.35 0.35 0.35 
0.35 0.35 0.35 0.35 0.35 0.35 0.35 0.35 0.35 
0.35 0.35 0.35 0.35 0.35 0.35 0.35 0.35 0.35 
0.35 0.35 0.35 0.35 0.35 0.35 0.35 0.35 0.35 
0.35 0.35 0.35 0.35 0.35 0.35 0.35 0.35 0.35 
0.35 0.35 0.35 0.35 0.35 0.35 0.35 0.35 0.35 
0.35 0.35 0.35 0.35 0.35 0.35 0.35 0.35 0.35 
0.35 0.35 0.35 0.35 0.35 0.35 0.35 0.35 0.35 
0.35 0.35 0.35 0.35 0.35 0.35 0.35 0.35 0.35 
0.35 0.35 0.35 0.35 0.35 0.35 0.35 0.35 0.35 
0.35 0.35 0.35 0.35 0.35 0.35 0.35 0.35 0.35 
0.35 0.35 0.35 0.35 0.35 0.35 0.35 0.35 0.35 
0.35 0.35 0.35 0.35 0.35 0.35 0.35 0.35 0.35 
0.35 0.35 0.35 0.35 0.35 0.35 0.35 0.35 0.35 
0.35 0.35 0.35 0.35 0.35 0.35 0.35 0.35 0.35 
0.35 0.35 0.35 0.35 0.35 0.35 0.35 0.35 0.35 
0.35 0.35 0.35 0.35 0.35 0.35 0.35 0.35 0.35 
0.35 0.35 0.35 0.35 0.35 0.35 0.35 0.35 0.35 
0.35 0.35 0.35 0.35 0.35 0.35 0.35 0.35 0.35 
0.35 0.35 0.35 0.35 0.35 0.35 0.35 0.35 0.35 
0.35 0.35 0.35 0.35 0.35 0.35 0.35 0.35 0.35 
0.35 0.35 0.35 0.35 0.35 0.35 0.35 0.35 0.35 
0.35 0.35 0.35 0.35 0.35 0.35 0.35 0.35 0.35 
0.35 0.35 0.35 0.35 0.35 0.35 0.35 0.35 0.35 
0.35 0.35 0.35 0.35 0.35 0.35 0.35 0.35 0.35 
0.35 0.35 0.35 0.35 0.35 0.35 0.35 0.35 0.35 
0.35 0.35 0.35 0.35 0.35 0.35 0.35 0.35 0.35 
0.35 0.35 0.35 0.35 0.35 0.35 0.35 0.35 0.35 
0.35 0.35 0.35 0.35 0.35 0.35 0.35 0.35 0.35 
0.35 0.35 0.35 0.35 0.35 0.35 0.35 0.35 0.35 
0.35 0.35 0.35 0.35 0.35 0.35 0.35 0.35 0.35 
0.35 0.35 0.35 0.35 0.35 0.35 0.35 0.35 0.35 
0.35 0.35 0.35 0.35 0.35 0.35 0.35 0.35 0.35 
0.35 0.35 0.35 0.35 0.35 0.35 0.35 0.35 0.35 
0.35 0.35 0.35 0.35 0.35 0.35 0.35 0.35 0.35 
0.35 0.35 0.35 0.35 0.35 0.35 0.35 0.35 0.35 
0.35 0.35 0.35 0.35 0.35 0.35 0.35 0.35 0.35 
0.35 0.35 0.35 0.35 0.35 0.35 0.35 0.35 0.35 
0.35 0.35 0.35 0.35 0.35 0.35 0.35 0.35 0.35 
0.35 0.35 0.35 0.35 0.35 0.35 0.35 0.35 0.35 
0.35 0.35 0.35 0.35 0.35 0.35 0.35 0.35 0.35 
0.35 0.35 0.35 0.35 0.35 0.35 0.35 0.35 0.35 
0.35 0.35 0.35 0.35 0.35 0.35 0.35 0.35 0.35 
0.35 0.35 0.35 0.35 0.35 0.35 0.35 0.35 0.35 
0.35 0.35 0.35 0.35 0.35 0.35 0.35 0.35 0.35 
0.35 0.35 0.35 0.35 0.35 0.35 0.35 0.35 0.35 
0.35 0.35 0.35 0.35 0.35 0.35 0.35 0.35 0.35 
0.35 0.35 0.35 0.35 0.35 0.35 0.35 0.35 0.35 
0.35 0.35 0.35 0.35 0.35 0.35 0.35 0.35 0.35 
0.35 0.35 0.35 0.35 0.35 0.35 0.35 0.35 0.35 
0.35 0.35 0.35 0.35 0.35 0.35 0.35 0.35 0.35 
0.35 0.35 0.35 0.35 0.35 0.35 0.35 0.35 0.35 
0.35 0.35 0.35 0.35 0.35 0.35 0.35 0.35 0.35 
0.35 0.35 0.35 0.35 0.35 0.35 0.35 0.35 0.35 
0.35 0.35 0.35 0.35 0.35 0.35 0.35 0.35 0.35 
0.35 0.35 0.35 0.35 0.35 0.35 0.35 0.35 0.35 
0.35 0.35 0.35 0.35 0.35 0.35 0.35 0.35 0.35 
0.35 0.35 0.35 0.35 0.35 0.35 0.35 0.35 0.35 
0.35 0.35 0.35 0.35 0.35 0.35 0.35 0.35 0.35 
0.35 0.35 0.35 0.35 0.35 0.35 0.35 0.35 0.35 
0.35 0.35 0.35 0.35 0.35 0.35 0.35 0.35 0.35 
0.35 0.35 0.35 0.35 0.35 0.35 0.35 0.35 0.35 
0.35 0.35 0.35 0.35 0.35 0.35 0.35 0.35 0.35 
0.35 0.35 0.35 0.35 0.35 0.35 0.35 0.35 0.35 
0.35 0.35 0.35 0.35 0.35 0.35 0.35 0.35 0.35 
0.35 0.35 0.35 0.35 0.35 0.35 0.35 0.35 0.35 
0.35 0.35 0.35 0.35 0.35 0.35 0.35 0.35 0.35 
0.35 0.35 0.35 0.35 0.35 0.35 0.35 0.35 0.35 
0.35 0.35 0.35 0.35 0.35 0.35 0.35 0.35 0.35 
0.35 0.35 0.35 0.35 0.35 0.35 0.35 0.35 0.35 
0.35 0.35 0.35 0.35 0.35 0.35 0.35 0.35 0.35 
0.35 0.35 0.35 0.35 0.35 0.35 0.35 0.35 0.35 
0.35 0.35 0.35 0.35 0.35 0.35 0.35 0.35 0.35 
0.35 0.35 0.35 0.35 0.35 0.35 0.35 0.35 0.35 
0.35 0.35 0.35 0.35 0.35 0.35 0.35 0.35 0.35 
0.35 0.35 0.35 0.35 0.35 0.35 0.35 0.35 0.35 
0.35 0.35 0.35 0.35 0.35 0.35 0.35 0.35 0.35 
0.35 0.35 0.35 0.35 0.35 0.35 0.35 0.35 0.35 
0.35 0.35 0.35 0.35 0.35 0.35 0.35 0.35 0.35 
0.35 0.35 0.35 0.35 0.35 0.35 0.35 0.35 0.35 
0.35 0.35 0.35 0.35 0.35 0.35 0.35 0.35 0.35 
0.35 0.35 0.35 0.35 0.35 0.35 0.35 0.35 0.35 
0.35 0.35 0.35 0.35 0.35 0.35 0.35 0.35 0.35 
0.35 0.35 0.35 0.35 0.35 0.35 0.35 0.35 0.35 
0.35 0.35 0.35 0.35 0.35 0.35 0.35 0.35 0.35 
0.35 0.35 0.35 0.35 0.35 0.35 0.35 0.35 0.35 
0.35 0.35 0.35 0.35 0.35 0.35 0.35 0.35 0.35 
0.35 0.35 0.35 0.35 0.35 0.35 0.35 0.35 0.35 
0.35 0.35 0.35 0.35 0.35 0.35 0.35 0.35 0.35 
0.35 0.35 0.35 0.35 0.35 0.35 0.35 0.35 0.35 
0.35 0.35 0.35 0.35 0.35 0.35 0.35 0.35 0.35 
0.35 0.35 0.35 0.35 0.35 0.35 0.35 0.35 0.35 
0.35 0.35 0.35 0.35 0.35 0.35 0.35 0.35 0.35 
0.35 0.35 0.35 0.35 0.35 0.35 0.35 0.35 0.35 
0.35 0.35 0.35 0.35 0.35 0.35 0.35 0.35 0.35 
0.35 0.35 0.35 0.35 0.35 0.35 0.35 0.35 0.35 
0.35 0.35 0.35 0.35 0.35 0.35 0.35 0.35 0.35 
0.35 0.35 0.35 0.35 0.35 0.35 0.35 0.35 0.35 
0.35 0.35 0.35 0.35 0.35 0.35 0.35 0.35 0.35 
0.35 0.35 0.35 0.35 0.35 0.35 0.35 0.35 0.35 
0.35 0.35 0.35 0.35 0.35 0.35 0.35 0.35 0.35 
0.35 0.35 0.35 0.35 0.35 0.35 0.35 0.35 0.35 
0.35 0.35 0.35 0.35 0.35 0.35 0.35 0.35 0.35 
0.35 0.35 0.35 0.35 0.35 0.35 0.35 0.35 0.35 
0.35 0.35 0.35 0.35 0.35 0.35 0.35 0.35 0.35 
0.35 0.35 0.35 0.35 0.35 0.35 0.35 0.35 0.35 
0.35 0.35 0.35 0.35 0.35 0.35 0.35 0.35 0.35 
0.35 0.35 0.35 0.35 0.35 0.35 0.35 0.35 0.35 
0.35 0.35 0.35 0.35 0.35 0.35 0.35 0.35 0.35 
0.35 0.35 0.35 0.35 0.35 0.35 0.35 0.35 0.35 
0.35 0.35 0.35 0.35 0.35 0.35 0.35 0.35 0.35 
0.35 0.35 0.35 0.35 0.35 0.35 0.35 0.35 0.35 
0.35 0.35 0.35 0.35 0.35 0.35 0.35 0.35 0.35 
0.35 0.35 0.35 0.35 0.35 0.35 0.35 0.35 0.35 
0.35 0.35 0.35 0.35 0.35 0.35 0.35 0.35 0.35 
0.35 0.35 0.35 0.35 0.35 0.35 0.35 0.35 0.35 
0.35 0.35 0.35 0.35 0.35 0.35 0.35 0.35 0.35 
0.35 0.35 0.35 0.35 0.35 0.35 0.35 0.35 0.35 
0.35 0.35 0.35 0.35 0.35 0.35 0.35 0.35 0.35 
0.35 0.35 0.35 0.35 0.35 0.35 0.35 0.35 0.35 
0.35 0.35 0.35 0.35 0.35 0.35 0.35 0.35 0.35 
0.35 0.35 0.35 0.35 0.35 0.35 0.35 0.35 0.35 
0.35 0.35 0.35 0.35 0.35 0.35 0.35 0.35 0.35 
0.35 0.35 0.35 0.35 0.35 0.35 0.35 0.35 0.35 
0.35 0.35 0.35 0.35 0.35 0.35 0.35 0.35 0.35 
0.35 0.35 0.35 0.35 0.35 0.35 0.35 0.35 0.35 
0.35 0.35 0.35 0.35 0.35 0.35 0.35 0.35 0.35 
0.35 0.35 0.35 0.35 0.35 0.35 0.35 0.35 0.35 
0.35 0.35 0.35 0.35 0.35 0.35 0.35 0.35 0.35 
0.35 0.35 0.35 0.35 0.35 0.35 0.35 0.35 0.35 
0.35 0.35 0.35 0.35 0.35 0.35 0.35 0.35 0.35 
0.35 0.35 0.35 0.35 0.35 0.35 0.35 0.35 0.35 
0.35 0.35 0.35 0.35 0.35 0.35 0.35 0.35 0.35 
0.35 0.35 0.35 0.35 0.35 0.35 0.35 0.35 0.35 
0.35 0.35 0.35 0.35 0.35 0.35 0.35 0.35 0.35 
0.35 0.35 0.35 0.35 0.35 0.35 0.35 0.35 0.35 
0.35 0.35 0.35 0.35 0.35 0.35 0.35 0.35 0.35 
0.35 0.35 0.35 0.35 0.35 0.35 0.35 0.35 0.35 
0.35 0.35 0.35 0.35 0.35 0.35 0.35 0.35 0.35 
0.35 0.35 0.35 0.35 0.35 0.35 0.35 0.35 0.35 
0.35 0.35 0.35 0.35 0.35 0.35 0.35 0.35 0.35 
0.35 0.35 0.35 0.35 0.35 0.35 0.35 0.35 0.35 
0.35 0.35 0.35 0.35 0.35 0.35 0.35 0.35 0.35 
0.35 0.35 0.35 0.35 0.35 0.35 0.35 0.35 0.35 
0.35 0.35 0.35 0.35 0.35 0.35 0.35 0.35 0.35 
0.35 0.35 0.35 0.35 0.35 0.35 0.35 0.35 0.35 
0.35 0.35 0.35 0.35 0.35 0.35 0.35 0.35 0.35 
0.35 0.35 0.35 0.35 0.35 0.35 0.35 0.35 0.35 
0.35 0.35 0.35 0.35 0.35 0.35 0.35 0.35 0.35 
0.35 0.35 0.35 0.35 0.35 0.35 0.35 0.35 0.35 
0.35 0.35 0.35 0.35 0.35 0.35 0.35 0.35 0.35 
0.35 0.35 0.35 0.35 0.35 0.35 0.35 0.35 0.35 
0.35 0.35 0.35 0.35 0.35 0.35 0.35 0.35 0.35 
0.35 0.35 0.35 0.35 0.35 0.35 0.35 0.35 0.35 
0.35 0.35 0.35 0.35 0.35 0.35 0.35 0.35 0.35 
0.35 0.35 0.35 0.35 0.35 0.35 0.35 0.35 0.35 
0.35 0.35 0.35 0.35 0.35 0.35 0.35 0.35 0.35 
0.35 0.35 0.35 0.35 0.35 0.35 0.35 0.35 0.35 
0.35 0.35 0.35 0.35 0.35 0.35 0.35 0.35 0.35 
0.35 0.35 0.35 0.35 0.35 0.35 0.35 0.35 0.35 
0.35 0.35 0.35 0.35 0.35 0.35 0.35 0.35 0.35 
0.35 0.35 0.35 0.35 0.35 0.35 0.35 0.35 0.35 
0.35 0.35 0.35 0.35 0.35 0.35 0.35 0.35 0.35 
0.35 0.35 0.35 0.35 0.35 0.35 0.35 0.35 0.35 
0.35 0.35 0.35 0.35 0.35 0.35 0.35 0.35 0.35 
0.35 0.35 0.35 0.35 0.35 0.35 0.35 0.35 0.35 
0.35 0.35 0.35 0.35 0.35 0.35 0.35 0.35 0.35 
0.35 0.35 0.35 0.35 0.35 0.35 0.35 0.35 0.35 
0.35 0.35 0.35 0.35 0.35 0.35 0.35 0.35 0.35 
0.35 0.35 0.35 0.35 0.35 0.35 0.35 0.35 0.35 
0.35 0.35 0.35 0.35 0.35 0.35 0.35 0.35 0.35 
0.35 0.35 0.35 0.35 0.35 0.35 0.35 0.35 0.35 
0.35 0.35 0.35 0.35 0.35 0.35 0.35 0.35 0.35 
0.35 0.35 0.35 0.35 0.35 0.35 0.35 0.35 0.35 
0.35 0.35 0.35 0.35 0.35 0.35 0.35 0.35 0.35 
0.35 0.35 0.35 0.35 0.35 0.35 0.35 0.35 0.35 
0.35 0.35 0.35 0.35 0.35 0.35 0.35 0.35 0.35 
0.35 0.35 0.35 0.35 0.35 0.35 0.35 0.35 0.35 
0.35 0.35 0.35 0.35 0.35 0.35 0.35 0.35 0.35 
0.35 0.35 0.35 0.35 0.35 0.35 0.35 0.35 0.35 
0.35 0.35 0.35 0.35 0.35 0.35 0.35 0.35 0.35 
0.35 0.35 0.35 0.35 0.35 0.35 0.35 0.35 0.35 
0.35 0.35 0.35 0.35 0.35 0.35 0.35 0.35 0.35 
0.35 0.35 0.35 0.35 0.35 0.35 0.35 0.35 0.35 
0.35 0.35 0.35 0.35 0.35 0.35 0.35 0.35 0.35 
0.35 0.35 0.35 0.35 0.35 0.35 0.35 0.35 0.35 
0.35 0.35 0.35 0.35 0.35 0.35 0.35 0.35 0.35 
0.35 0.35 0.35 0.35 0.35 0.35 0.35 0.35 0.35 
0.35 0.35 0.35 0.35 0.35 0.35 0.35 0.35 0.35 
0.35 0.35 0.35 0.35 0.35 0.35 0.35 0.35 0.35 
0.35 0.35 0.35 0.35 0.35 0.35 0.35 0.35 0.35 
0.35 0.35 0.35 0.35 0.35 0.35 0.35 0.35 0.35 
0.35 0.35 0.35 0.35 0.35 0.35 0.35 0.35 0.35 
0.35 0.35 0.35 0.35 0.35 0.35 0.35 0.35 0.35 
0.35 0.35 0.35 0.35 0.35 0.35 0.35 0.35 0.35 
0.35 0.35 0.35 0.35 0.35 0.35 0.35 0.35 0.35 
0.35 0.35 0.35 0.35 0.35 0.35 0.35 0.35 0.35 
0.35 0.35 0.35 0.35 0.35 0.35 0.35 0.35 0.35 
0.35 0.35 0.35 0.35 0.35 0.35 0.35 0.35 0.35 
0.35 0.35 0.35 0.35 0.35 0.35 0.35 0.35 0.35 
0.35 0.35 0.35 0.35 0.35 0.35 0.35 0.35 0.35 
0.35 0.35 0.35 0.35 0.35 0.35 0.35 0.35 0.35 
0.35 0.35 0.35 0.35 0.35 0.35 0.35 0.35 0.35 
0.35 0.35 0.35 0.35 0.35 0.35 0.35 0.35 0.35 
0.35 0.35 0.35 0.35 0.35 0.35 0.35 0.35 0.35 
0.35 0.35 0.35 0.35 0.35 0.35 0.35 0.35 0.35 
0.35 0.35 0.35 0.35 0.35 0.35 0.35 0.35 0.35 
0.35 0.35 0.35 0.35 0.35 0.35 0.35 0.35 0.35 
0.35 0.35 0.35 0.35 0.35 0.35 0.35 0.35 0.35 
0.35 0.35 0.35 0.35 0.35 0.35 0.35 0.35 0.35 
0.35 0.35 0.35 0.35 0.35 0.35 0.35 0.35 0.35 
0.35 0.35 0.35 0.35 0.35 0.35 0.35 0.35 0.35 
0.35 0.35 0.35 0.35 0.35 0.35 0.35 0.35 0.35 
0.35 0.35 0.35 0.35 0.35 0.35 0.35 0.35 0.35 
0.35 0.35 0.35 0.35 0.35 0.35 0.35 0.35 0.35 
0.35 0.35 0.35 0.35 0.35 0.35 0.35 0.35 0.35 
0.35 0.35 0.35 0.35 0.35 0.35 0.35 0.35 0.35 
0.35 0.35 0.35 0.35 0.35 0.35 0.35 0.35 0.35 
0.35 0.35 0.35 0.35 0.35 0.35 0.35 0.35 0.35 
0.35 0.35 0.35 0.35 0.35 0.35 0.35 0.35 0.35 
0.35 0.35 0.35 0.35 0.35 0.35 0.35 0.35 0.35 
0.35 0.35 0.35 0.35 0.35 0.35 0.35 0.35 0.35 
0.35 0.35 0.35 0.35 0.35 0.35 0.35 0.35 0.35 
0.35 0.35 0.35 0.35 0.35 0.35 0.35 0.35 0.35 
0.35 0.35 0.35 0.35 0.35 0.35 0.35 0.35 0.35 
0.35 0.35 0.35 0.35 0.35 0.35 0.35 0.35 0.35 
0.35 0.35 0.35 0.35 0.35 0.35 0.35 0.35 0.35 
0.35 0.35 0.35 0.35 0.35 0.35 0.35 0.35 0.35 
0.35 0.35 0.35 0.35 0.35 0.35 0.35 0.35 0.35 
0.35 0.35 0.35 0.35 0.35 0.35 0.35 0.35 0.35 
0.35 0.35 0.35 0.35 0.35 0.35 0.35 0.35 0.35 
0.35 0.35 0.35 0.35 0.35 0.35 0.35 0.35 0.35 
0.35 0.35 0.35 0.35 0.35 0.35 0.35 0.35 0.35 
0.35 0.35 0.35 0.35 0.35 0.35 0.35 0.35 0.35 
0.35 0.35 0.35 0.35 0.35 0.35 0.35 0.35 0.35 
0.35 0.35 0.35 0.35 0.35 0.35 0.35 0.35 0.35 
0.35 0.35 0.35 0.35 0.35 0.35 0.35 0.35 0.35 
0.35 0.35 0.35 0.35 0.35 0.35 0.35 0.35 0.35 
0.35 0.35 0.35 0.35 0.35 0.35 0.35 0.35 0.35 
0.35 0.35 0.35 0.35 0.35 0.35 0.35 0.35 0.35 
0.35 0.35 0.35 0.35 0.35 0.35 0.35 0.35 0.35 
0.35 0.35 0.35 0.35 0.35 0.35 0.35 0.35 0.35 
0.35 0.35 0.35 0.35 0.35 0.35 0.35 0.35 0.35 
0.35 0.35 0.35 0.35 0.35 0.35 0.35 0.35 0.35 
0.35 0.35 0.35 0.35 0.35 0.35 0.35 0.35 0.35 
0.35 0.35 0.35 0.35 0.35 0.35 0.35 0.35 0.35 
0.35 0.35 0.35 0.35 0.35 0.35 0.35 0.35 0.35 
0.35 0.35 0.35 0.35 0.35 0.35 0.35 0.35 0.35 
0.35 0.35 0.35 0.35 0.35 0.35 0.35 0.35 0.35 
0.35 0.35 0.35 0.35 0.35 0.35 0.35 0.35 0.35 
0.35 0.35 0.35 0.35 0.35 0.35 0.35 0.35 0.35 
0.35 0.35 0.35 0.35 0.35 0.35 0.35 0.35 0.35 
0.35 0.35 0.35 0.35 0.35 0.35 0.35 0.35 0.35 
0.35 0.35 0.35 0.35 0.35 0.35 0.35 0.35 0.35 
0.35 0.35 0.35 0.35 0.35 0.35 0.35 0.35 0.35 
0.35 0.35 0.35 0.35 0.35 0.35 0.35 0.35 0.35 
0.35 0.35 0.35 0.35 0.35 0.35 0.35 0.35 0.35 
0.35 0.35 0.35 0.35 0.35 0.35 0.35 0.35 0.35 
0.35 0.35 0.35 0.35 0.35 0.35 0.35 0.35 0.35 
0.35 0.35 0.35 0.35 0.35 0.35 0.35 0.35 0.35 
0.35 0.35 0.35 0.35 0.35 0.35 0.35 0.35 0.35 
0.35 0.35 0.35 0.35 0.35 0.35 0.35 0.35 0.35 
0.35 0.35 0.35 0.35 0.35 0.35 0.35 0.35 0.35 
0.35 0.35 0.35 0.35 0.35 0.35 0.35 0.35 0.35 
0.35 0.35 0.35 0.35 0.35 0.35 0.35 0.35 0.35 
0.35 0.35 0.35 0.35 0.35 0.35 0.35 0.35 0.35 
0.35 0.35 0.35 0.35 0.35 0.35 0.35 0.35 0.35 
0.35 0.35 0.35 0.35 0.35 0.35 0.35 0.35 0.35 
0.35 0.35 0.35 0.35 0.35 0.35 0.35 0.35 0.35 
0.35 0.35 0.35 0.35 0.35 0.35 0.35 0.35 0.35 
0.35 0.35 0.35 0.35 0.35 0.35 0.35 0.35 0.35 
0.35 0.35 0.35 0.35 0.35 0.35 0.35 0.35 0.35 
0.35 0.35 0.35 0.35 0.35 0.35 0.35 0.35 0.35 
0.35 0.35 0.35 0.35 0.35 0.35 0.35 0.35 0.35 
0.35 0.35 0.35 0.35 0.35 0.35 0.35 0.35 0.35 
0.35 0.35 0.35 0.35 0.35 0.35 0.35 0.35 0.35 
0.35 0.35 0.35 0.35 0.35 0.35 0.35 0.35 0.35 
0.35 0.35 0.35 0.35 0.35 0.35 0.35 0.35 0.35 
0.35 0.35 0.35 0.35 0.35 0.35 0.35 0.35 0.35 
0.35 0.35 0.35 0.35 0.35 0.35 0.35 0.35 0.35 
0.35 0.35 0.35 0.35 0.35 0.35 0.35 0.35 0.35 
0.35 0.35 0.35 0.35 0.35 0.35 0.35 0.35 0.35 
0.35 0.35 0.35 0.35 0.35 0.35 0.35 0.35 0.35 
0.35 0.35 0.35 0.35 0.35 0.35 0.35 0.35 0.35 
0.35 0.35 0.35 0.35 0.35 0.35 0.35 0.35 0.35 
0.35 0.35 0.35 0.35 0.35 0.35 0.35 0.35 0.35 
0.35 0.35 0.35 0.35 0.35 0.35 0.35 0.35 0.35 
0.35 0.35 0.35 0.35 0.35 0.35 0.35 0.35 0.35 
0.35 0.35 0.35 0.35 0.35 0.35 0.35 0.35 0.35 
0.35 0.35 0.35 0.35 0.35 0.35 0.35 0.35 0.35 
0.35 0.35 0.35 0.35 0.35 0.35 0.35 0.35 0.35 
0.35 0.35 0.35 0.35 0.35 0.35 0.35 0.35 0.35 
0.35 0.35 0.35 0.35 0.35 0.35 0.35 0.35 0.35 
0.35 0.35 0.35 0.35 0.35 0.35 0.35 0.35 0.35 
0.35 0.35 0.35 0.35 0.35 0.35 0.35 0.35 0.35 
0.35 0.35 0.35 0.35 0.35 0.35 0.35 0.35 0.35 
0.35 0.35 0.35 0.35 0.35 0.35 0.35 0.35 0.35 
0.35 0.35 0.35 0.35 0.35 0.35 0.35 0.35 0.35 
0.35 0.35 0.35 0.35 0.35 0.35 0.35 0.35 0.35 
0.35 0.35 0.35 0.35 0.35 0.35 0.35 0.35 0.35 
0.35 0.35 0.35 0.35 0.35 0.35 0.35 0.35 0.35 
0.35 0.35 0.35 0.35 0.35 0.35 0.35 0.35 0.35 
0.35 0.35 0.35 0.35 0.35 0.35 0.35 0.35 0.35 
0.35 0.35 0.35 0.35 0.35 0.35 0.35 0.35 0.35 
0.35 0.35 0.35 0.35 0.35 0.35 0.35 0.35 0.35 
0.35 0.35 0.35 0.35 0.35 0.35 0.35 0.35 0.35 
0.35 0.35 0.35 0.35 0.35 0.35 0.35 0.35 0.35 
0.35 0.35 0.35 0.35 0.35 0.35 0.35 0.35 0.35 
0.35 0.35 0.35 0.35 0.35 0.35 0.35 0.35 0.35 
0.35 0.35 0.35 0.35 0.35 0.35 0.35 0.35 0.35 
0.35 0.35 0.35 0.35 0.35 0.35 0.35 0.35 0.35 
0.35 0.35 0.35 0.35 0.35 0.35 0.35 0.35 0.35 
0.35 0.35 0.35 0.35 0.35 0.35 0.35 0.35 0.35 
0.35 0.35 0.35 0.35 0.35 0.35 0.35 0.35 0.35 
0.35 0.35 0.35 0.35 0.35 0.35 0.35 0.35 0.35 
0.35 0.35 0.35 0.35 0.35 0.35 0.35 0.35 0.35 
0.35 0.35 0.35 0.35 0.35 0.35 0.35 0.35 0.35 
0.35 0.35 0.35 0.35 0.35 0.35 0.35 0.35 0.35 
0.35 0.35 0.35 0.35 0.35 0.35 0.35 0.35 0.35 
0.35 0.35 0.35 0.35 0.35 0.35 0.35 0.35 0.35 
0.35 0.35 0.35 0.35 0.35 0.35 0.35 0.35 0.35 
0.35 0.35 0.35 0.35 0.35 0.35 0.35 0.35 0.35 
0.35 0.35 0.35 0.35 0.35 0.35 0.35 0.35 0.35 
0.35 0.35 0.35 0.35 0.35 0.35 0.35 0.35 0.35 
0.35 0.35 0.35 0.35 0.35 0.35 0.35 0.35 0.35 
0.35 0.35 0.35 0.35 0.35 0.35 0.35 0.35 0.35 
0.35 0.35 0.35 0.35 0.35 0.35 0.35 0.35 0.35 
0.35 0.35 0.35 0.35 0.35 0.35 0.35 0.35 0.35 
0.35 0.35 0.35 0.35 0.35 0.35 0.35 0.35 0.35 
0.35 0.35 0.35 0.35 0.35 0.35 0.35 0.35 0.35 
0.35 0.35 0.35 0.35 0.35 0.35 0.35 0.35 0.35 
0.35 0.35 0.35 0.35 0.35 0.35 0.35 0.35 0.35 
0.35 0.35 0.35 0.35 0.35 0.35 0.35 0.35 0.35 
0.35 0.35 0.35 0.35 0.35 0.35 0.35 0.35 0.35 
0.35 0.35 0.35 0.35 0.35 0.35 0.35 0.35 0.35 
0.35 0.35 0.35 0.35 0.35 0.35 0.35 0.35 0.35 
0.35 0.35 0.35 0.35 0.35 0.35 0.35 0.35 0.35 
0.35 0.35 0.35 0.35 0.35 0.35 0.35 0.35 0.35 
0.35 0.35 0.35 0.35 0.35 0.35 0.35 0.35 0.35 
0.35 0.35 0.35 0.35 0.35 0.35 0.35 0.35 0.35 
0.35 0.35 0.35 0.35 0.35 0.35 0.35 0.35 0.35 
0.35 0.35 0.35 0.35 0.35 0.35 0.35 0.35 0.35 
0.35 0.35 0.35 0.35 0.35 0.35 0.35 0.35 0.35 
0.35 0.35 0.35 0.35 0.35 0.35 0.35 0.35 0.35 
0.35 0.35 0.35 0.35 0.35 0.35 0.35 0.35 0.35 
0.35 0.35 0.35 0.35 0.35 0.35 0.35 0.35 0.35 
0.35 0.35 0.35 0.35 0.35 0.35 0.35 0.35 0.35 
0.35 0.35 0.35 0.35 0.35 0.35 0.35 0.35 0.35 
0.35 0.35 0.35 0.35 0.35 0.35 0.35 0.35 0.35 
0.35 0.35 0.35 0.35 0.35 0.35 0.35 0.35 0.35 
0.35 0.35 0.35 0.35 0.35 0.35 0.35 0.35 0.35 
0.35 0.35 0.35 0.35 0.35 0.35 0.35 0.35 0.35 
0.35 0.35 0.35 0.35 0.35 0.35 0.35 0.35 0.35 
0.35 0.35 0.35 0.35 0.35 0.35 0.35 0.35 0.35 
0.35 0.35 0.35 0.35 0.35 0.35 0.35 0.35 0.35 
0.35 0.35 0.35 0.35 0.35 0.35 0.35 0.35 0.35 
0.35 0.35 0.35 0.35 0.35 0.35 0.35 0.35 0.35 
0.35 0.35 0.35 0.35 0.35 0.35 0.35 0.35 0.35 
0.35 0.35 0.35 0.35 0.35 0.35 0.35 0.35 0.35 
0.35 0.35 0.35 0.35 0.35 0.35 0.35 0.35 0.35 
0.35 0.35 0.35 0.35 0.35 0.35 0.35 0.35 0.35 
0.35 0.35 0.35 0.35 0.35 0.35 0.35 0.35 0.35 
0.35 0.35 0.35 0.35 0.35 0.35 0.35 0.35 0.35 
0.35 0.35 0.35 0.35 0.35 0.35 0.35 0.35 0.35 
0.35 0.35 0.35 0.35 0.35 0.35 0.35 0.35 0.35 
0.35 0.35 0.35 0.35 0.35 0.35 0.35 0.35 0.35 
0.35 0.35 0.35 0.35 0.35 0.35 0.35 0.35 0.35 
0.35 0.35 0.35 0.35 0.35 0.35 0.35 0.35 0.35 
0.35 0.35 0.35 0.35 0.35 0.35 0.35 0.35 0.35 
0.35 0.35 0.35 0.35 0.35 0.35 0.35 0.35 0.35 
0.35 0.35 0.35 0.35 0.35 0.35 0.35 0.35 0.35 
0.35 0.35 0.35 0.35 0.35 0.35 0.35 0.35 0.35 
0.35 0.35 0.35 0.35 0.35 0.35 0.35 0.35 0.35 
0.35 0.35 0.35 0.35 0.35 0.35 0.35 0.35 0.35 
0.35 0.35 0.35 0.35 0.35 0.35 0.35 0.35 0.35 
0.35 0.35 0.35 0.35 0.35 0.35 0.35 0.35 0.35 
0.35 0.35 0.35 0.35 0.35 0.35 0.35 0.35 0.35 
0.35 0.35 0.35 0.35 0.35 0.35 0.35 0.35 0.35 
0.35 0.35 0.35 0.35 0.35 0.35 0.35 0.35 0.35 
0.35 0.35 0.35 0.35 0.35 0.35 0.35 0.35 0.35 